LAMMPS Description

     1750  atoms
     1500  bonds
     1000  angles
     1500  dihedrals
     0  impropers

     977  atom types
     1186  bond types
     5265  angle types
     1441  dihedral types
     44  improper types

  -5 50 xlo xhi
  -5 50 ylo yhi
  -5 50 zlo zhi

Masses

1 12.01  # Sp2 C carbonyl group
2 12.01  # Sp C
3 12.01  # Sp2 C
4 12.01  # Sp3 C
5 12.01  # Sp2 C in pure aromatic systems
6 12.01  # Head Sp2 C that connect two rings in biphenyl sys.
7 12.01  # Head Sp2 C that connect two rings in biphenyl sys. identical to cp
8 12.01  # Sp2 carbons in non-pure aromatic systems
9 12.01  # Sp2 carbons in non-pure aromatic systems, identical to cc
10 12.01  # Inner Sp2 carbons in conjugated systems
11 12.01  # Inner Sp2 carbons in conjugated systems, identical to ce
12 12.01  # Inner Sp carbons in conjugated systems
13 12.01  # Inner Sp carbons in conjugated systems, identical to cg
14 12.01  # Sp3 carbons in triangle systems
15 12.01  # Sp3 carbons in square systems
16 12.01  # Sp2 carbons in triangle systems
17 12.01  # Sp2 carbons in square systems
18 12.01  # Sp2 carbon in guanidine group
19 1.008  # H bonded to aliphatic carbon with 1 electrwd. group
20 1.008  # H bonded to aliphatic carbon with 2 electrwd. group
21 1.008  # H bonded to aliphatic carbon with 3 electrwd. group
22 1.008  # H bonded to non-sp3 carbon with 1 electrwd. group
23 1.008  # H bonded to non-sp3 carbon with 2 electrwd. group
24 1.008  # H bonded to aromatic carbon
25 1.008  # H bonded to aliphatic carbon without electrwd. group
26 1.008  # H bonded to nitrogen atoms
27 1.008  # Hydroxyl group
28 1.008  # H bonded to phosphate
29 1.008  # Hydrogen bonded to sulphur
30 1.008  # Hydrogen in water
31 1.008  # H bonded to C next to positively charged group
32 19.00  # Fluorine
33 35.45  # Chlorine
34 79.90  # Bromine
35 126.9  # Iodine
36 14.01  # Sp2 nitrogen in amide groups
37 14.01  # Sp N
38 14.01  # aliphatic Sp2 N with two connected atoms
39 14.01  # Sp3 N with three connected atoms
40 14.01  # Sp3 N with four connected atoms
41 14.01  # Sp2 N with three connected atoms
42 14.01  # Sp2 N in pure aromatic systems
43 14.01  # Sp2 N in non-pure aromatic systems
44 14.01  # Sp2 N in non-pure aromatic systems, identical to nc
45 14.01  # Inner Sp2 N in conjugated systems
46 14.01  # Inner Sp2 N in conjugated systems, identical to ne
47 14.01  # Amine N connected one or more aromatic rings
48 14.01  # Nitro N
49 16.00  # Oxygen with one connected atom
50 16.00  # Oxygen in hydroxyl group
51 16.00  # Ether and ester oxygen
52 16.00  # Oxygen in water
53 30.97  # Phosphate with two connected atoms
54 30.97  # Phosphate with three connected atoms, such as PH3
55 30.97  # Phosphate with three connected atoms, such as O=P(CH3)2
56 30.97  # Phosphate with four connected atoms, such as O=P(OH)3
57 30.97  # Sp2 P in pure aromatic systems
58 30.97  # Sp2 P in non-pure aromatic systems
59 30.97  # Sp2 P in non-pure aromatic systems, identical to pc
60 30.97  # Inner Sp2 P in conjugated systems
61 30.97  # Inner Sp2 P in conjugated systems, identical to pe
62 30.97  # Special p4 in conjugated systems
63 30.97  # Special p5 in conjugated systems
64 32.06  # S with one connected atom
65 32.06  # S with two connected atom, involved at least one double bond
66 32.06  # S with three connected atoms
67 32.06  # S with four connected atoms
68 32.06  # Sp3 S connected with hydrogen
69 32.06  # Sp3 S in thio-ester and thio-ether
70 32.06  # Special s4 in conjugated systems
71 32.06  # Special s6 in conjugated systems
72 18.998  # 1_b001_a001_d001_i001
73 14.027  # 2_b002_a002_d002_i002
74 12.011  # 3_b003_a003_d003_i003
75 15.999  # 4_b004_a004_d004_i004
76 15.999  # 5_b005_a005_d005_i005
77 15.035  # 6_b006_a006_d006_i006
78 1.008  # 7_b007_a007_d007_i007
79 16.043  # 8_b008_a008_d008_i008
80 15.035  # 9_b006_a006_d006_i006
81 15.035  # 10_b006_a006_d006_i006
82 15.035  # 11_b006_a006_d006_i006
83 15.035  # 12_b006_a006_d006_i006
84 14.027  # 13_b002_a002_d002_i002
85 14.027  # 14_b009_a009_d009_i009
86 13.019  # 15_b010_a010_d010_i010
87 13.019  # 16_b011_a011_d011_i011
88 13.019  # 17_b012_a012_d012_i012
89 12.011  # 18_b013_a013_d013_i013
90 12.011  # 19_b014_a014_d014_i014
91 15.999  # 20_b005_a005_d005_i005
92 1.008  # 21_b007_a007_d007_i007
93 15.035  # 22_b006_a006_d006_i006
94 14.027  # 23_b002_a002_d002_i002
95 32.06  # 24_b015_a015_d015_i015
96 32.06  # 25_b015_a015_d015_i015
97 32.06  # 26_b016_a016_d016_i016
98 32.06  # 27_b016_a016_d016_i016
99 1.008  # 28_b017_a017_d017_i017
100 1.008  # 29_b017_a017_d017_i017
101 15.035  # 30_b006_a006_d006_i006
102 14.027  # 31_b002_a002_d002_i002
103 15.035  # 32_b006_a006_d006_i006
104 14.027  # 33_b002_a002_d002_i002
105 15.035  # 34_b006_a006_d006_i006
106 14.027  # 35_b002_a002_d002_i002
107 14.007  # 36_b018_a018_d018_i018
108 12.011  # 37_b019_a019_d019_i019
109 15.035  # 38_b006_a006_d006_i006
110 13.019  # 39_b010_a010_d010_i010
111 12.011  # 40_b013_a013_d013_i013
112 15.999  # 41_b020_a020_d020_i020
113 15.035  # 42_b006_a006_d006_i006
114 14.027  # 43_b002_a002_d002_i002
115 14.027  # 44_b002_a002_d002_i002
116 35.453  # 45_b021_a021_d021_i021
117 12.011  # 46_b010_a010_d010_i010
118 35.453  # 47_b021_a021_d021_i021
119 12.011  # 48_b013_a013_d013_i013
120 35.453  # 49_b021_a021_d021_i021
121 32.06  # 50_b022_a022_d022_i022
122 15.999  # 51_b023_a023_d023_i023
123 15.035  # 52_b006_a006_d006_i006
124 15.999  # 53_b004_a004_d004_i004
125 14.007  # 54_b024_a024_d024_i024
126 12.011  # 55_b003_a003_d003_i003
127 15.035  # 56_b006_a006_d006_i006
128 1.0  # 57_b025_a025_d025_i025
129 4.003  # 58_b026_a026_d026_i026
130 20.179  # 59_b027_a027_d027_i027
131 39.948  # 60_b028_a028_d028_i028
132 83.8  # 61_b029_a029_d029_i029
133 131.3  # 62_b030_a030_d030_i030
134 15.999  # 63_b031_a031_d031_i031
135 1.008  # 64_b032_a032_d032_i032
136 15.999  # 65_b031_a031_d031_i031
137 1.008  # 66_b032_a032_d032_i032
138 1e-30  # 67_b033_a033_d033_i033
139 15.999  # 68_b034_a034_d034_i034
140 1.008  # 69_b035_a035_d035_i035
141 15.999  # 70_b036_a036_d036_i036
142 1.008  # 71_b037_a037_d037_i037
143 1e-30  # 72_b038_a038_d038_i038
144 15.999  # 73_b039_a039_d039_i039
145 1.008  # 74_b040_a040_d040_i040
146 1e-30  # 75_b041_a041_d041_i041
147 15.999  # 76_b042_a042_d042_i042
148 1.008  # 77_b043_a043_d043_i043
149 14.007  # 78_b044_a044_d044_i044
150 1.008  # 79_b045_a045_d045_i045
151 12.011  # 80_b013_a013_d013_i013
152 12.011  # 81_b013_a013_d013_i013
153 12.011  # 82_b013_a013_d013_i013
154 12.011  # 83_b013_a013_d013_i013
155 12.011  # 84_b013_a013_d013_i013
156 1.008  # 85_b046_a046_d046_i046
157 12.011  # 86_b047_a047_d047_i047
158 12.011  # 87_b047_a047_d047_i047
159 12.011  # 88_b047_a047_d047_i047
160 1.008  # 89_b046_a046_d046_i046
161 12.011  # 90_b048_a048_d048_i048
162 1.008  # 91_b049_a049_d049_i049
163 12.011  # 92_b048_a048_d048_i048
164 12.011  # 93_b013_a013_d013_i013
165 12.011  # 94_b013_a013_d013_i013
166 12.011  # 95_b050_a050_d050_i050
167 15.999  # 96_b005_a005_d005_i005
168 1.008  # 97_b007_a007_d007_i007
169 1.008  # 98_b046_a046_d046_i046
170 12.011  # 99_b013_a013_d013_i013
171 12.011  # 100_b013_a013_d013_i013
172 12.011  # 101_b013_a013_d013_i013
173 12.011  # 102_b013_a013_d013_i013
174 12.011  # 103_b013_a013_d013_i013
175 15.999  # 104_b005_a005_d005_i005
176 1.008  # 105_b007_a007_d007_i007
177 18.998  # 106_b001_a001_d001_i001
178 1.008  # 107_b046_a046_d046_i046
179 12.011  # 108_b048_a048_d048_i048
180 15.999  # 109_b005_a005_d005_i005
181 1.008  # 110_b007_a007_d007_i007
182 15.999  # 111_b005_a005_d005_i005
183 1.008  # 112_b007_a007_d007_i007
184 15.999  # 113_b005_a005_d005_i005
185 1.008  # 114_b007_a007_d007_i007
186 12.011  # 115_b013_a013_d013_i013
187 12.011  # 116_b013_a013_d013_i013
188 12.011  # 117_b013_a013_d013_i013
189 1.008  # 118_b046_a046_d046_i046
190 15.999  # 119_b020_a020_d020_i020
191 12.011  # 120_b050_a050_d050_i050
192 15.999  # 121_b020_a020_d020_i020
193 15.999  # 122_b020_a020_d020_i020
194 12.011  # 123_b013_a013_d013_i013
195 12.011  # 124_b013_a013_d013_i013
196 12.011  # 125_b013_a013_d013_i013
197 12.011  # 126_b013_a013_d013_i013
198 1.008  # 127_b046_a046_d046_i046
199 15.999  # 128_b020_a020_d020_i020
200 15.999  # 129_b005_a005_d005_i005
201 1.008  # 130_b007_a007_d007_i007
202 12.011  # 131_b051_a051_d051_i051
203 1.008  # 132_b046_a046_d046_i046
204 12.011  # 133_b051_a051_d051_i051
205 1.008  # 134_b046_a046_d046_i046
206 12.011  # 135_b051_a051_d051_i051
207 1.008  # 136_b046_a046_d046_i046
208 12.011  # 137_b051_a051_d051_i051
209 1.008  # 138_b046_a046_d046_i046
210 12.011  # 139_b051_a051_d051_i051
211 12.011  # 140_b051_a051_d051_i051
212 12.011  # 141_b048_a048_d048_i048
213 32.06  # 142_b015_a015_d015_i015
214 32.06  # 143_b015_a015_d015_i015
215 32.06  # 144_b016_a016_d016_i016
216 32.06  # 145_b016_a016_d016_i016
217 1.008  # 146_b017_a017_d017_i017
218 1.008  # 147_b017_a017_d017_i017
219 12.011  # 148_b013_a013_d013_i013
220 12.011  # 149_b013_a013_d013_i013
221 12.011  # 150_b013_a013_d013_i013
222 12.011  # 151_b013_a013_d013_i013
223 12.011  # 152_b013_a013_d013_i013
224 12.011  # 153_b013_a013_d013_i013
225 12.011  # 154_b013_a013_d013_i013
226 12.011  # 155_b013_a013_d013_i013
227 12.011  # 156_b013_a013_d013_i013
228 12.011  # 157_b013_a013_d013_i013
229 12.011  # 158_b013_a013_d013_i013
230 12.011  # 159_b013_a013_d013_i013
231 12.011  # 160_b013_a013_d013_i013
232 12.011  # 161_b013_a013_d013_i013
233 12.011  # 162_b013_a013_d013_i013
234 12.011  # 163_b048_a048_d048_i048
235 32.06  # 164_b016_a016_d016_i016
236 12.011  # 165_b013_a013_d013_i013
237 12.011  # 166_b013_a013_d013_i013
238 12.011  # 167_b013_a013_d013_i013
239 35.453  # 168_b021_a021_d021_i021
240 12.011  # 169_b047_a047_d047_i047
241 12.011  # 170_b048_a048_d048_i048
242 12.011  # 171_b013_a013_d013_i013
243 12.011  # 172_b013_a013_d013_i013
244 12.011  # 173_b003_a003_d003_i003
245 12.011  # 174_b003_a003_d003_i003
246 12.011  # 175_b003_a003_d003_i003
247 12.011  # 176_b003_a003_d003_i003
248 12.011  # 177_b003_a003_d003_i003
249 15.999  # 178_b004_a004_d004_i004
250 14.007  # 179_b024_a024_d024_i024
251 14.007  # 180_b024_a024_d024_i024
252 14.007  # 181_b024_a024_d024_i024
253 1.008  # 182_b045_a045_d045_i045
254 1.008  # 183_b045_a045_d045_i045
255 12.011  # 184_b013_a013_d013_i013
256 12.011  # 185_b013_a013_d013_i013
257 12.011  # 186_b013_a013_d013_i013
258 12.011  # 187_b013_a013_d013_i013
259 12.011  # 188_b013_a013_d013_i013
260 12.011  # 189_b003_a003_d003_i003
261 15.999  # 190_b004_a004_d004_i004
262 14.007  # 191_b024_a024_d024_i024
263 1.008  # 192_b045_a045_d045_i045
264 14.007  # 193_b024_a024_d024_i024
265 12.011  # 194_b003_a003_d003_i003
266 15.999  # 195_b004_a004_d004_i004
267 1.008  # 196_b045_a045_d045_i045
268 1.008  # 197_b046_a046_d046_i046
269 12.011  # 198_b013_a013_d013_i013
270 12.011  # 199_b013_a013_d013_i013
271 12.011  # 200_b013_a013_d013_i013
272 12.011  # 201_b013_a013_d013_i013
273 12.011  # 202_b048_a048_d048_i048
274 12.011  # 203_b019_a019_d019_i019
275 14.007  # 204_b018_a018_d018_i018
276 12.011  # 205_b048_a048_d048_i048
277 35.453  # 206_b021_a021_d021_i021
278 14.007  # 207_b024_a024_d024_i024
279 12.011  # 208_b048_a048_d048_i048
280 12.011  # 209_b003_a003_d003_i003
281 15.999  # 210_b004_a004_d004_i004
282 15.999  # 211_b005_a005_d005_i005
283 1.008  # 212_b007_a007_d007_i007
284 12.011  # 213_b003_a003_d003_i003
285 15.999  # 214_b052_a052_d052_i052
286 12.011  # 215_b013_a013_d013_i013
287 12.011  # 216_b013_a013_d013_i013
288 12.011  # 217_b013_a013_d013_i013
289 12.011  # 218_b013_a013_d013_i013
290 12.011  # 219_b003_a003_d003_i003
291 15.999  # 220_b004_a004_d004_i004
292 1.008  # 221_b046_a046_d046_i046
293 12.011  # 222_b003_a003_d003_i003
294 15.999  # 223_b004_a004_d004_i004
295 1.008  # 224_b046_a046_d046_i046
296 12.011  # 225_b013_a013_d013_i013
297 12.011  # 226_b013_a013_d013_i013
298 12.011  # 227_b013_a013_d013_i013
299 12.011  # 228_b013_a013_d013_i013
300 14.007  # 229_b053_a053_d053_i053
301 14.007  # 230_b053_a053_d053_i053
302 14.007  # 231_b053_a053_d053_i053
303 1.008  # 232_b054_a054_d054_i054
304 1.008  # 233_b054_a054_d054_i054
305 12.011  # 234_b013_a013_d013_i013
306 12.011  # 235_b013_a013_d013_i013
307 12.011  # 236_b013_a013_d013_i013
308 12.011  # 237_b013_a013_d013_i013
309 12.011  # 238_b013_a013_d013_i013
310 12.011  # 239_b013_a013_d013_i013
311 12.011  # 240_b013_a013_d013_i013
312 12.011  # 241_b013_a013_d013_i013
313 12.011  # 242_b013_a013_d013_i013
314 14.007  # 243_b055_a055_d055_i055
315 1.008  # 244_b054_a054_d054_i054
316 12.011  # 245_b048_a048_d048_i048
317 14.007  # 246_b055_a055_d055_i055
318 1.008  # 247_b054_a054_d054_i054
319 12.011  # 248_b013_a013_d013_i013
320 12.011  # 249_b013_a013_d013_i013
321 12.011  # 250_b013_a013_d013_i013
322 12.011  # 251_b013_a013_d013_i013
323 14.007  # 252_b053_a053_d053_i053
324 1.008  # 253_b054_a054_d054_i054
325 14.007  # 254_b056_a056_d056_i056
326 12.011  # 255_b048_a048_d048_i048
327 14.007  # 256_b055_a055_d055_i055
328 1.008  # 257_b045_a045_d045_i045
329 12.011  # 258_b048_a048_d048_i048
330 1.008  # 259_b049_a049_d049_i049
331 12.011  # 260_b048_a048_d048_i048
332 1.008  # 261_b049_a049_d049_i049
333 14.007  # 262_b057_a057_d057_i057
334 12.011  # 263_b003_a003_d003_i003
335 14.007  # 264_b057_a057_d057_i057
336 12.011  # 265_b003_a003_d003_i003
337 12.011  # 266_b047_a047_d047_i047
338 12.011  # 267_b047_a047_d047_i047
339 1.008  # 268_b045_a045_d045_i045
340 15.999  # 269_b004_a004_d004_i004
341 1.008  # 270_b045_a045_d045_i045
342 15.999  # 271_b004_a004_d004_i004
343 1.008  # 272_b046_a046_d046_i046
344 1.008  # 273_b046_a046_d046_i046
345 12.011  # 274_b013_a013_d013_i013
346 1.008  # 275_b046_a046_d046_i046
347 14.007  # 276_b057_a057_d057_i057
348 12.011  # 277_b003_a003_d003_i003
349 14.007  # 278_b056_a056_d056_i056
350 12.011  # 279_b048_a048_d048_i048
351 12.011  # 280_b047_a047_d047_i047
352 12.011  # 281_b047_a047_d047_i047
353 1.008  # 282_b045_a045_d045_i045
354 15.999  # 283_b004_a004_d004_i004
355 14.007  # 284_b055_a055_d055_i055
356 1.008  # 285_b045_a045_d045_i045
357 1.008  # 286_b045_a045_d045_i045
358 1.008  # 287_b046_a046_d046_i046
359 1.008  # 288_b058_a058_d058_i058
360 14.007  # 289_b056_a056_d056_i056
361 12.011  # 290_b059_a059_d059_i059
362 14.007  # 291_b056_a056_d056_i056
363 12.011  # 292_b060_a060_d060_i060
364 12.011  # 293_b060_a060_d060_i060
365 12.011  # 294_b048_a048_d048_i048
366 14.007  # 295_b061_a061_d061_i061
367 12.011  # 296_b062_a062_d062_i062
368 14.007  # 297_b057_a057_d057_i057
369 1.008  # 298_b063_a063_d063_i063
370 14.007  # 299_b055_a055_d055_i055
371 1.008  # 300_b045_a045_d045_i045
372 1.008  # 301_b045_a045_d045_i045
373 1.008  # 302_b063_a063_d063_i063
374 1.008  # 303_b045_a045_d045_i045
375 14.007  # 304_b057_a057_d057_i057
376 12.011  # 305_b048_a048_d048_i048
377 14.007  # 306_b056_a056_d056_i056
378 12.011  # 307_b060_a060_d060_i060
379 12.011  # 308_b060_a060_d060_i060
380 12.011  # 309_b003_a003_d003_i003
381 1.008  # 310_b045_a045_d045_i045
382 14.007  # 311_b055_a055_d055_i055
383 1.008  # 312_b045_a045_d045_i045
384 15.999  # 313_b004_a004_d004_i004
385 12.011  # 314_b013_a013_d013_i013
386 1.008  # 315_b046_a046_d046_i046
387 12.011  # 316_b013_a013_d013_i013
388 1.008  # 317_b046_a046_d046_i046
389 12.011  # 318_b013_a013_d013_i013
390 1.008  # 319_b046_a046_d046_i046
391 14.007  # 320_b057_a057_d057_i057
392 12.011  # 321_b003_a003_d003_i003
393 14.007  # 322_b057_a057_d057_i057
394 12.011  # 323_b048_a048_d048_i048
395 12.011  # 324_b047_a047_d047_i047
396 12.011  # 325_b047_a047_d047_i047
397 1.008  # 326_b045_a045_d045_i045
398 15.999  # 327_b004_a004_d004_i004
399 1.008  # 328_b045_a045_d045_i045
400 14.007  # 329_b055_a055_d055_i055
401 1.008  # 330_b045_a045_d045_i045
402 1.008  # 331_b045_a045_d045_i045
403 1.008  # 332_b049_a049_d049_i049
404 1.008  # 333_b058_a058_d058_i058
405 12.011  # 334_b013_a013_d013_i013
406 1.008  # 335_b046_a046_d046_i046
407 30.974  # 336_b064_a064_d064_i064
408 15.999  # 337_b052_a052_d052_i052
409 15.999  # 338_b020_a020_d020_i020
410 15.035  # 339_b013_a013_d013_i013
411 12.011  # 340_b047_a047_d047_i047
412 35.453  # 341_b021_a021_d021_i021
413 12.011  # 342_b047_a047_d047_i047
414 18.998  # 343_b001_a001_d001_i001
415 35.453  # 344_b021_a021_d021_i021
416 79.904  # 345_b065_a065_d065_i065
417 126.905  # 346_b066_a066_d066_i066
418 18.039  # 347_b067_a067_d067_i067
419 6.941  # 348_b068_a068_d068_i068
420 22.99  # 349_b069_a069_d069_i069
421 39.098  # 350_b070_a070_d070_i070
422 85.468  # 351_b071_a071_d071_i071
423 132.905  # 352_b072_a072_d072_i072
424 24.305  # 353_b073_a073_d073_i073
425 40.08  # 354_b074_a074_d074_i074
426 87.62  # 355_b075_a075_d075_i075
427 137.33  # 356_b076_a076_d076_i076
428 12.011  # 357_b006_a006_d006_i006
429 1.008  # 358_b046_a046_d046_i046
430 32.06  # 359_b015_a015_d015_i015
431 12.011  # 360_b006_a006_d006_i006
432 1.008  # 361_b046_a046_d046_i046
433 15.999  # 362_b005_a005_d005_i005
434 12.011  # 363_b013_a013_d013_i013
435 1.008  # 364_b046_a046_d046_i046
436 12.011  # 365_b019_a019_d019_i019
437 14.007  # 366_b018_a018_d018_i018
438 12.011  # 367_b006_a006_d006_i006
439 1.008  # 368_b046_a046_d046_i046
440 14.007  # 369_b053_a053_d053_i053
441 1.008  # 370_b045_a045_d045_i045
442 12.011  # 371_b006_a006_d006_i006
443 1.008  # 372_b046_a046_d046_i046
444 12.011  # 373_b013_a013_d013_i013
445 1.008  # 374_b046_a046_d046_i046
446 1e-30  # 375_b033_a033_d033_i033
447 15.999  # 376_b005_a005_d005_i005
448 1.008  # 377_b007_a007_d007_i007
449 238.029  # 378_b077_a077_d077_i077
450 15.999  # 379_b078_a078_d078_i078
451 15.999  # 380_b020_a020_d020_i020
452 30.974  # 381_b064_a064_d064_i064
453 15.999  # 382_b052_a052_d052_i052
454 15.999  # 383_b020_a020_d020_i020
455 12.011  # 384_b013_a013_d013_i013
456 1.008  # 385_b046_a046_d046_i046
457 30.974  # 386_b064_a064_d064_i064
458 15.999  # 387_b052_a052_d052_i052
459 15.999  # 388_b020_a020_d020_i020
460 12.011  # 389_b013_a013_d013_i013
461 1.008  # 390_b046_a046_d046_i046
462 30.974  # 391_b064_a064_d064_i064
463 15.999  # 392_b052_a052_d052_i052
464 15.999  # 393_b020_a020_d020_i020
465 12.011  # 394_b013_a013_d013_i013
466 1.008  # 395_b046_a046_d046_i046
467 12.011  # 396_b013_a013_d013_i013
468 1.008  # 397_b046_a046_d046_i046
469 12.011  # 398_b048_a048_d048_i048
470 12.011  # 399_b013_a013_d013_i013
471 1.008  # 400_b046_a046_d046_i046
472 12.011  # 401_b048_a048_d048_i048
473 12.011  # 402_b013_a013_d013_i013
474 1.008  # 403_b046_a046_d046_i046
475 12.011  # 404_b048_a048_d048_i048
476 12.011  # 405_b013_a013_d013_i013
477 12.011  # 406_b003_a003_d003_i003
478 15.999  # 407_b004_a004_d004_i004
479 15.999  # 408_b020_a020_d020_i020
480 12.011  # 409_b013_a013_d013_i013
481 1.008  # 410_b046_a046_d046_i046
482 12.011  # 411_b003_a003_d003_i003
483 12.011  # 412_b003_a003_d003_i003
484 12.011  # 413_b048_a048_d048_i048
485 15.999  # 414_b020_a020_d020_i020
486 32.06  # 415_b079_a079_d079_i079
487 15.999  # 416_b023_a023_d023_i023
488 12.011  # 417_b013_a013_d013_i013
489 1.008  # 418_b046_a046_d046_i046
490 14.007  # 419_b024_a024_d024_i024
491 1.008  # 420_b045_a045_d045_i045
492 14.007  # 421_b024_a024_d024_i024
493 1.008  # 422_b045_a045_d045_i045
494 12.011  # 423_b013_a013_d013_i013
495 1.008  # 424_b046_a046_d046_i046
496 12.011  # 425_b013_a013_d013_i013
497 1.008  # 426_b046_a046_d046_i046
498 12.011  # 427_b013_a013_d013_i013
499 1.008  # 428_b046_a046_d046_i046
500 12.011  # 429_b048_a048_d048_i048
501 12.011  # 430_b048_a048_d048_i048
502 12.011  # 431_b013_a013_d013_i013
503 12.011  # 432_b013_a013_d013_i013
504 12.011  # 433_b013_a013_d013_i013
505 32.06  # 434_b079_a079_d079_i079
506 15.999  # 435_b023_a023_d023_i023
507 32.06  # 436_b022_a022_d022_i022
508 32.06  # 437_b022_a022_d022_i022
509 15.999  # 438_b023_a023_d023_i023
510 12.011  # 439_b013_a013_d013_i013
511 12.011  # 440_b013_a013_d013_i013
512 12.011  # 441_b080_a080_d080_i080
513 12.011  # 442_b060_a060_d060_i060
514 12.011  # 443_b081_a081_d081_i081
515 14.007  # 444_b057_a057_d057_i057
516 1.008  # 445_b045_a045_d045_i045
517 12.011  # 446_b013_a013_d013_i013
518 12.011  # 447_b082_a082_d082_i082
519 12.011  # 448_b083_a083_d083_i083
520 12.011  # 449_b084_a084_d084_i084
521 12.011  # 450_b082_a082_d082_i082
522 12.011  # 451_b085_a085_d085_i085
523 14.007  # 452_b061_a061_d061_i061
524 14.007  # 453_b057_a057_d057_i057
525 1.008  # 454_b045_a045_d045_i045
526 12.011  # 455_b084_a084_d084_i084
527 12.011  # 456_b013_a013_d013_i013
528 12.011  # 457_b013_a013_d013_i013
529 12.011  # 458_b047_a047_d047_i047
530 12.011  # 459_b047_a047_d047_i047
531 12.011  # 460_b086_a086_d086_i086
532 14.007  # 461_b056_a056_d056_i056
533 12.011  # 462_b048_a048_d048_i048
534 12.011  # 463_b048_a048_d048_i048
535 12.011  # 464_b048_a048_d048_i048
536 1.008  # 465_b049_a049_d049_i049
537 1.008  # 466_b049_a049_d049_i049
538 1.008  # 467_b049_a049_d049_i049
539 14.007  # 468_b056_a056_d056_i056
540 12.011  # 469_b048_a048_d048_i048
541 1.008  # 470_b049_a049_d049_i049
542 14.007  # 471_b056_a056_d056_i056
543 12.011  # 472_b059_a059_d059_i059
544 12.011  # 473_b048_a048_d048_i048
545 12.011  # 474_b048_a048_d048_i048
546 1.008  # 475_b049_a049_d049_i049
547 1.008  # 476_b049_a049_d049_i049
548 1.008  # 477_b049_a049_d049_i049
549 14.007  # 478_b056_a056_d056_i056
550 12.011  # 479_b048_a048_d048_i048
551 12.011  # 480_b048_a048_d048_i048
552 1.008  # 481_b049_a049_d049_i049
553 1.008  # 482_b049_a049_d049_i049
554 14.007  # 483_b057_a057_d057_i057
555 12.011  # 484_b084_a084_d084_i084
556 12.011  # 485_b087_a087_d087_i087
557 1.008  # 486_b045_a045_d045_i045
558 1.008  # 487_b049_a049_d049_i049
559 1.008  # 488_b049_a049_d049_i049
560 14.007  # 489_b057_a057_d057_i057
561 14.007  # 490_b061_a061_d061_i061
562 12.011  # 491_b088_a088_d088_i088
563 12.011  # 492_b087_a087_d087_i087
564 12.011  # 493_b084_a084_d084_i084
565 1.008  # 494_b045_a045_d045_i045
566 1.008  # 495_b049_a049_d049_i049
567 1.008  # 496_b049_a049_d049_i049
568 1.008  # 497_b049_a049_d049_i049
569 14.007  # 498_b057_a057_d057_i057
570 12.011  # 499_b082_a082_d082_i082
571 14.007  # 500_b061_a061_d061_i061
572 12.011  # 501_b083_a083_d083_i083
573 12.011  # 502_b084_a084_d084_i084
574 1.008  # 503_b045_a045_d045_i045
575 1.008  # 504_b049_a049_d049_i049
576 1.008  # 505_b049_a049_d049_i049
577 1.008  # 506_b049_a049_d049_i049
578 15.999  # 507_b020_a020_d020_i020
579 12.011  # 508_b084_a084_d084_i084
580 12.011  # 509_b087_a087_d087_i087
581 1.008  # 510_b049_a049_d049_i049
582 1.008  # 511_b049_a049_d049_i049
583 15.999  # 512_b020_a020_d020_i020
584 12.011  # 513_b082_a082_d082_i082
585 14.007  # 514_b061_a061_d061_i061
586 12.011  # 515_b083_a083_d083_i083
587 12.011  # 516_b084_a084_d084_i084
588 1.008  # 517_b049_a049_d049_i049
589 1.008  # 518_b049_a049_d049_i049
590 1.008  # 519_b049_a049_d049_i049
591 15.999  # 520_b020_a020_d020_i020
592 14.007  # 521_b061_a061_d061_i061
593 12.011  # 522_b088_a088_d088_i088
594 12.011  # 523_b087_a087_d087_i087
595 12.011  # 524_b084_a084_d084_i084
596 1.008  # 525_b049_a049_d049_i049
597 1.008  # 526_b049_a049_d049_i049
598 1.008  # 527_b049_a049_d049_i049
599 14.007  # 528_b057_a057_d057_i057
600 12.011  # 529_b084_a084_d084_i084
601 12.011  # 530_b087_a087_d087_i087
602 12.011  # 531_b048_a048_d048_i048
603 12.011  # 532_b048_a048_d048_i048
604 12.011  # 533_b048_a048_d048_i048
605 12.011  # 534_b048_a048_d048_i048
606 12.011  # 535_b081_a081_d081_i081
607 12.011  # 536_b060_a060_d060_i060
608 1.008  # 537_b045_a045_d045_i045
609 1.008  # 538_b049_a049_d049_i049
610 1.008  # 539_b049_a049_d049_i049
611 1.008  # 540_b049_a049_d049_i049
612 1.008  # 541_b049_a049_d049_i049
613 1.008  # 542_b049_a049_d049_i049
614 1.008  # 543_b049_a049_d049_i049
615 14.007  # 544_b056_a056_d056_i056
616 12.011  # 545_b048_a048_d048_i048
617 12.011  # 546_b048_a048_d048_i048
618 12.011  # 547_b048_a048_d048_i048
619 12.011  # 548_b048_a048_d048_i048
620 12.011  # 549_b048_a048_d048_i048
621 12.011  # 550_b048_a048_d048_i048
622 12.011  # 551_b048_a048_d048_i048
623 12.011  # 552_b048_a048_d048_i048
624 12.011  # 553_b048_a048_d048_i048
625 1.008  # 554_b049_a049_d049_i049
626 1.008  # 555_b049_a049_d049_i049
627 1.008  # 556_b049_a049_d049_i049
628 1.008  # 557_b049_a049_d049_i049
629 1.008  # 558_b049_a049_d049_i049
630 1.008  # 559_b049_a049_d049_i049
631 1.008  # 560_b049_a049_d049_i049
632 14.007  # 561_b056_a056_d056_i056
633 12.011  # 562_b059_a059_d059_i059
634 14.007  # 563_b056_a056_d056_i056
635 12.011  # 564_b060_a060_d060_i060
636 12.011  # 565_b060_a060_d060_i060
637 12.011  # 566_b048_a048_d048_i048
638 14.007  # 567_b061_a061_d061_i061
639 12.011  # 568_b062_a062_d062_i062
640 14.007  # 569_b057_a057_d057_i057
641 1.008  # 570_b049_a049_d049_i049
642 1.008  # 571_b049_a049_d049_i049
643 1.008  # 572_b049_a049_d049_i049
644 1.008  # 573_b045_a045_d045_i045
645 32.06  # 574_b016_a016_d016_i016
646 12.011  # 575_b082_a082_d082_i082
647 14.007  # 576_b061_a061_d061_i061
648 12.011  # 577_b083_a083_d083_i083
649 12.011  # 578_b084_a084_d084_i084
650 1.008  # 579_b049_a049_d049_i049
651 1.008  # 580_b049_a049_d049_i049
652 1.008  # 581_b049_a049_d049_i049
653 14.007  # 582_b056_a056_d056_i056
654 12.011  # 583_b059_a059_d059_i059
655 1.008  # 584_b049_a049_d049_i049
656 12.011  # 585_b048_a048_d048_i048
657 12.011  # 586_b013_a013_d013_i013
658 14.007  # 587_b056_a056_d056_i056
659 12.011  # 588_b048_a048_d048_i048
660 12.011  # 589_b048_a048_d048_i048
661 12.011  # 590_b048_a048_d048_i048
662 12.011  # 591_b048_a048_d048_i048
663 12.011  # 592_b048_a048_d048_i048
664 12.011  # 593_b048_a048_d048_i048
665 1.008  # 594_b049_a049_d049_i049
666 1.008  # 595_b049_a049_d049_i049
667 1.008  # 596_b049_a049_d049_i049
668 1.008  # 597_b049_a049_d049_i049
669 14.007  # 598_b057_a057_d057_i057
670 12.011  # 599_b082_a082_d082_i082
671 14.007  # 600_b061_a061_d061_i061
672 12.011  # 601_b083_a083_d083_i083
673 12.011  # 602_b084_a084_d084_i084
674 12.011  # 603_b013_a013_d013_i013
675 1.008  # 604_b049_a049_d049_i049
676 1.008  # 605_b049_a049_d049_i049
677 1.008  # 606_b049_a049_d049_i049
678 1.008  # 607_b046_a046_d046_i046
679 12.011  # 608_b013_a013_d013_i013
680 12.011  # 609_b013_a013_d013_i013
681 12.011  # 610_b013_a013_d013_i013
682 12.011  # 611_b013_a013_d013_i013
683 12.011  # 612_b013_a013_d013_i013
684 12.011  # 613_b013_a013_d013_i013
685 12.011  # 614_b013_a013_d013_i013
686 12.011  # 615_b013_a013_d013_i013
687 12.011  # 616_b013_a013_d013_i013
688 12.011  # 617_b013_a013_d013_i013
689 12.011  # 618_b013_a013_d013_i013
690 12.011  # 619_b013_a013_d013_i013
691 12.011  # 620_b013_a013_d013_i013
692 12.011  # 621_b013_a013_d013_i013
693 12.011  # 622_b013_a013_d013_i013
694 32.06  # 623_b015_a015_d015_i015
695 1.008  # 624_b017_a017_d017_i017
696 12.011  # 625_b048_a048_d048_i048
697 12.011  # 626_b089_a089_d089_i089
698 14.007  # 627_b090_a090_d090_i090
699 12.011  # 628_b091_a091_d091_i091
700 12.011  # 629_b091_a091_d091_i091
701 12.011  # 630_b013_a013_d013_i013
702 12.011  # 631_b086_a086_d086_i086
703 12.011  # 632_b086_a086_d086_i086
704 12.011  # 633_b086_a086_d086_i086
705 12.011  # 634_b086_a086_d086_i086
706 12.011  # 635_b086_a086_d086_i086
707 12.011  # 636_b086_a086_d086_i086
708 32.06  # 637_b016_a016_d016_i016
709 227.0  # 638_b092_a092_d092_i092
710 232.038  # 639_b093_a093_d093_i093
711 243.0  # 640_b094_a094_d094_i094
712 12.011  # 641_b095_a095_d095_i095
713 12.011  # 642_b013_a013_d013_i013
714 1.008  # 643_b046_a046_d046_i046
715 138.906  # 644_b096_a096_d096_i096
716 144.24  # 645_b097_a097_d097_i097
717 151.96  # 646_b098_a098_d098_i098
718 157.25  # 647_b099_a099_d099_i099
719 173.04  # 648_b100_a100_d100_i100
720 12.011  # 649_b047_a047_d047_i047
721 35.453  # 650_b021_a021_d021_i021
722 1.008  # 651_b046_a046_d046_i046
723 12.011  # 652_b091_a091_d091_i091
724 12.011  # 653_b091_a091_d091_i091
725 12.011  # 654_b091_a091_d091_i091
726 12.011  # 655_b048_a048_d048_i048
727 1.008  # 656_b049_a049_d049_i049
728 12.011  # 657_b048_a048_d048_i048
729 1.008  # 658_b049_a049_d049_i049
730 12.011  # 659_b048_a048_d048_i048
731 18.998  # 660_b001_a001_d001_i001
732 12.011  # 661_b048_a048_d048_i048
733 18.998  # 662_b001_a001_d001_i001
734 79.904  # 663_b065_a065_d065_i065
735 14.027  # 664_b002_a002_d002_i002
736 12.011  # 665_b048_a048_d048_i048
737 12.011  # 666_b013_a013_d013_i013
738 18.998  # 667_b001_a001_d001_i001
739 12.011  # 668_b048_a048_d048_i048
740 18.998  # 669_b001_a001_d001_i001
741 12.011  # 670_b048_a048_d048_i048
742 79.904  # 671_b065_a065_d065_i065
743 12.011  # 672_b048_a048_d048_i048
744 126.905  # 673_b066_a066_d066_i066
745 12.011  # 674_b091_a091_d091_i091
746 32.06  # 675_b015_a015_d015_i015
747 12.011  # 676_b048_a048_d048_i048
748 12.011  # 677_b048_a048_d048_i048
749 12.011  # 678_b048_a048_d048_i048
750 12.011  # 679_b048_a048_d048_i048
751 12.011  # 680_b048_a048_d048_i048
752 1.008  # 681_b049_a049_d049_i049
753 1.008  # 682_b049_a049_d049_i049
754 12.011  # 683_b048_a048_d048_i048
755 14.007  # 684_b055_a055_d055_i055
756 1.008  # 685_b045_a045_d045_i045
757 1.008  # 686_b045_a045_d045_i045
758 1.008  # 687_b049_a049_d049_i049
759 12.011  # 688_b013_a013_d013_i013
760 12.011  # 689_b013_a013_d013_i013
761 14.007  # 690_b101_a101_d101_i101
762 14.007  # 691_b056_a056_d056_i056
763 14.007  # 692_b101_a101_d101_i101
764 12.011  # 693_b048_a048_d048_i048
765 14.007  # 694_b018_a018_d018_i018
766 12.011  # 695_b019_a019_d019_i019
767 12.011  # 696_b013_a013_d013_i013
768 12.011  # 697_b013_a013_d013_i013
769 12.011  # 698_b013_a013_d013_i013
770 12.011  # 699_b013_a013_d013_i013
771 1.008  # 700_b046_a046_d046_i046
772 14.007  # 701_b102_a102_d102_i102
773 15.999  # 702_b103_a103_d103_i103
774 12.011  # 703_b013_a013_d013_i013
775 1.008  # 704_b046_a046_d046_i046