LAMMPS Description

     18000  atoms
     10150  bonds
     5075  angles
     0  dihedrals
     0  impropers

     7  atom types
     1  bond types
     1  angle types

  -100.0 100.0 xlo xhi
  -100.0 100.0 ylo yhi
  -100.0 100.0 zlo zhi

Masses

1 28.0855  # Si
2 15.9994  # O
3 26.9815  # Al
4 1.01  # H
5 40.078  # Ca
6 15.9994  # O
7 1.008  # H

Atoms  # full

1 1 6 -0.8476 -20.0 -10.0 -16.0
2 1 7 0.4238 -19.1835096 -10.0 -15.422641
3 1 7 0.4238 -20.8164904 -10.0 -15.422641
4 2 6 -0.8476 -20.0 -10.0 -12.55
5 2 7 0.4238 -19.1835096 -10.0 -11.972641
6 2 7 0.4238 -20.8164904 -10.0 -11.972641
7 3 6 -0.8476 -20.0 -10.0 -9.1
8 3 7 0.4238 -19.1835096 -10.0 -8.522641
9 3 7 0.4238 -20.8164904 -10.0 -8.522641
10 4 6 -0.8476 -20.0 -10.0 -5.65
11 4 7 0.4238 -19.1835096 -10.0 -5.072641
12 4 7 0.4238 -20.8164904 -10.0 -5.072641
13 5 6 -0.8476 -20.0 -10.0 -2.2
14 5 7 0.4238 -19.1835096 -10.0 -1.622641
15 5 7 0.4238 -20.8164904 -10.0 -1.622641
16 6 6 -0.8476 -20.0 -10.0 1.25
17 6 7 0.4238 -19.1835096 -10.0 1.827359
18 6 7 0.4238 -20.8164904 -10.0 1.827359
19 7 6 -0.8476 -20.0 -10.0 4.7
20 7 7 0.4238 -19.1835096 -10.0 5.277359
21 7 7 0.4238 -20.8164904 -10.0 5.277359
22 8 6 -0.8476 -20.0 -10.0 8.15
23 8 7 0.4238 -19.1835096 -10.0 8.727359
24 8 7 0.4238 -20.8164904 -10.0 8.727359
25 9 6 -0.8476 -20.0 -10.0 11.6
26 9 7 0.4238 -19.1835096 -10.0 12.177359
27 9 7 0.4238 -20.8164904 -10.0 12.177359
28 10 6 -0.8476 -20.0 -10.0 15.05
29 10 7 0.4238 -19.1835096 -10.0 15.627359
30 10 7 0.4238 -20.8164904 -10.0 15.627359
31 11 6 -0.8476 -20.0 -10.0 18.5
32 11 7 0.4238 -19.1835096 -10.0 19.077359
33 11 7 0.4238 -20.8164904 -10.0 19.077359
34 12 6 -0.8476 -20.0 -10.0 21.95
35 12 7 0.4238 -19.1835096 -10.0 22.527359
36 12 7 0.4238 -20.8164904 -10.0 22.527359
37 13 6 -0.8476 -20.0 -10.0 25.4
38 13 7 0.4238 -19.1835096 -10.0 25.977359
39 13 7 0.4238 -20.8164904 -10.0 25.977359
40 14 6 -0.8476 -20.0 -10.0 28.85
41 14 7 0.4238 -19.1835096 -10.0 29.427359
42 14 7 0.4238 -20.8164904 -10.0 29.427359
43 15 6 -0.8476 -20.0 -10.0 32.3
44 15 7 0.4238 -19.1835096 -10.0 32.877359
45 15 7 0.4238 -20.8164904 -10.0 32.877359
46 16 6 -0.8476 -20.0 -10.0 35.75
47 16 7 0.4238 -19.1835096 -10.0 36.327359
48 16 7 0.4238 -20.8164904 -10.0 36.327359
49 17 6 -0.8476 -20.0 -10.0 39.2
50 17 7 0.4238 -19.1835096 -10.0 39.777359
51 17 7 0.4238 -20.8164904 -10.0 39.777359
52 18 6 -0.8476 -20.0 -10.0 42.65
53 18 7 0.4238 -19.1835096 -10.0 43.227359
54 18 7 0.4238 -20.8164904 -10.0 43.227359
55 19 6 -0.8476 -20.0 -10.0 46.1
56 19 7 0.4238 -19.1835096 -10.0 46.677359
57 19 7 0.4238 -20.8164904 -10.0 46.677359
58 20 6 -0.8476 -20.0 -10.0 49.55
59 20 7 0.4238 -19.1835096 -10.0 50.127359
60 20 7 0.4238 -20.8164904 -10.0 50.127359
61 21 6 -0.8476 -20.0 -6.55 -16.0
62 21 7 0.4238 -19.1835096 -6.55 -15.422641
63 21 7 0.4238 -20.8164904 -6.55 -15.422641
64 22 6 -0.8476 -20.0 -6.55 -12.55
65 22 7 0.4238 -19.1835096 -6.55 -11.972641
66 22 7 0.4238 -20.8164904 -6.55 -11.972641
67 23 6 -0.8476 -20.0 -6.55 -9.1
68 23 7 0.4238 -19.1835096 -6.55 -8.522641
69 23 7 0.4238 -20.8164904 -6.55 -8.522641
70 24 6 -0.8476 -20.0 -6.55 -5.65
71 24 7 0.4238 -19.1835096 -6.55 -5.072641
72 24 7 0.4238 -20.8164904 -6.55 -5.072641
73 25 6 -0.8476 -20.0 -6.55 -2.2
74 25 7 0.4238 -19.1835096 -6.55 -1.622641
75 25 7 0.4238 -20.8164904 -6.55 -1.622641
76 26 6 -0.8476 -20.0 -6.55 1.25
77 26 7 0.4238 -19.1835096 -6.55 1.827359
78 26 7 0.4238 -20.8164904 -6.55 1.827359
79 27 6 -0.8476 -20.0 -6.55 4.7
80 27 7 0.4238 -19.1835096 -6.55 5.277359
81 27 7 0.4238 -20.8164904 -6.55 5.277359
82 28 6 -0.8476 -20.0 -6.55 8.15
83 28 7 0.4238 -19.1835096 -6.55 8.727359
84 28 7 0.4238 -20.8164904 -6.55 8.727359
85 29 6 -0.8476 -20.0 -6.55 11.6
86 29 7 0.4238 -19.1835096 -6.55 12.177359
87 29 7 0.4238 -20.8164904 -6.55 12.177359
88 30 6 -0.8476 -20.0 -6.55 15.05
89 30 7 0.4238 -19.1835096 -6.55 15.627359
90 30 7 0.4238 -20.8164904 -6.55 15.627359
91 31 6 -0.8476 -20.0 -6.55 18.5
92 31 7 0.4238 -19.1835096 -6.55 19.077359
93 31 7 0.4238 -20.8164904 -6.55 19.077359
94 32 6 -0.8476 -20.0 -6.55 21.95
95 32 7 0.4238 -19.1835096 -6.55 22.527359
96 32 7 0.4238 -20.8164904 -6.55 22.527359
97 33 6 -0.8476 -20.0 -6.55 25.4
98 33 7 0.4238 -19.1835096 -6.55 25.977359
99 33 7 0.4238 -20.8164904 -6.55 25.977359
100 34 6 -0.8476 -20.0 -6.55 28.85
101 34 7 0.4238 -19.1835096 -6.55 29.427359
102 34 7 0.4238 -20.8164904 -6.55 29.427359
103 35 6 -0.8476 -20.0 -6.55 32.3
104 35 7 0.4238 -19.1835096 -6.55 32.877359
105 35 7 0.4238 -20.8164904 -6.55 32.877359
106 36 6 -0.8476 -20.0 -6.55 35.75
107 36 7 0.4238 -19.1835096 -6.55 36.327359
108 36 7 0.4238 -20.8164904 -6.55 36.327359
109 37 6 -0.8476 -20.0 -6.55 39.2
110 37 7 0.4238 -19.1835096 -6.55 39.777359
111 37 7 0.4238 -20.8164904 -6.55 39.777359
112 38 6 -0.8476 -20.0 -6.55 42.65
113 38 7 0.4238 -19.1835096 -6.55 43.227359
114 38 7 0.4238 -20.8164904 -6.55 43.227359
115 39 6 -0.8476 -20.0 -6.55 46.1
116 39 7 0.4238 -19.1835096 -6.55 46.677359
117 39 7 0.4238 -20.8164904 -6.55 46.677359
118 40 6 -0.8476 -20.0 -6.55 49.55
119 40 7 0.4238 -19.1835096 -6.55 50.127359
120 40 7 0.4238 -20.8164904 -6.55 50.127359
121 41 6 -0.8476 -20.0 -3.1 -16.0
122 41 7 0.4238 -19.1835096 -3.1 -15.422641
123 41 7 0.4238 -20.8164904 -3.1 -15.422641
124 42 6 -0.8476 -20.0 -3.1 -12.55
125 42 7 0.4238 -19.1835096 -3.1 -11.972641
126 42 7 0.4238 -20.8164904 -3.1 -11.972641
127 43 6 -0.8476 -20.0 -3.1 -9.1
128 43 7 0.4238 -19.1835096 -3.1 -8.522641
129 43 7 0.4238 -20.8164904 -3.1 -8.522641
130 44 6 -0.8476 -20.0 -3.1 -5.65
131 44 7 0.4238 -19.1835096 -3.1 -5.072641
132 44 7 0.4238 -20.8164904 -3.1 -5.072641
133 45 6 -0.8476 -20.0 -3.1 -2.2
134 45 7 0.4238 -19.1835096 -3.1 -1.622641
135 45 7 0.4238 -20.8164904 -3.1 -1.622641
136 46 6 -0.8476 -20.0 -3.1 1.25
137 46 7 0.4238 -19.1835096 -3.1 1.827359
138 46 7 0.4238 -20.8164904 -3.1 1.827359
139 47 6 -0.8476 -20.0 -3.1 4.7
140 47 7 0.4238 -19.1835096 -3.1 5.277359
141 47 7 0.4238 -20.8164904 -3.1 5.277359
142 48 6 -0.8476 -20.0 -3.1 8.15
143 48 7 0.4238 -19.1835096 -3.1 8.727359
144 48 7 0.4238 -20.8164904 -3.1 8.727359
145 49 6 -0.8476 -20.0 -3.1 11.6
146 49 7 0.4238 -19.1835096 -3.1 12.177359
147 49 7 0.4238 -20.8164904 -3.1 12.177359
148 50 6 -0.8476 -20.0 -3.1 15.05
149 50 7 0.4238 -19.1835096 -3.1 15.627359
150 50 7 0.4238 -20.8164904 -3.1 15.627359
151 51 6 -0.8476 -20.0 -3.1 18.5
152 51 7 0.4238 -19.1835096 -3.1 19.077359
153 51 7 0.4238 -20.8164904 -3.1 19.077359
154 52 6 -0.8476 -20.0 -3.1 21.95
155 52 7 0.4238 -19.1835096 -3.1 22.527359
156 52 7 0.4238 -20.8164904 -3.1 22.527359
157 53 6 -0.8476 -20.0 -3.1 25.4
158 53 7 0.4238 -19.1835096 -3.1 25.977359
159 53 7 0.4238 -20.8164904 -3.1 25.977359
160 54 6 -0.8476 -20.0 -3.1 28.85
161 54 7 0.4238 -19.1835096 -3.1 29.427359
162 54 7 0.4238 -20.8164904 -3.1 29.427359
163 55 6 -0.8476 -20.0 -3.1 32.3
164 55 7 0.4238 -19.1835096 -3.1 32.877359
165 55 7 0.4238 -20.8164904 -3.1 32.877359
166 56 6 -0.8476 -20.0 -3.1 35.75
167 56 7 0.4238 -19.1835096 -3.1 36.327359
168 56 7 0.4238 -20.8164904 -3.1 36.327359
169 57 6 -0.8476 -20.0 -3.1 39.2
170 57 7 0.4238 -19.1835096 -3.1 39.777359
171 57 7 0.4238 -20.8164904 -3.1 39.777359
172 58 6 -0.8476 -20.0 -3.1 42.65
173 58 7 0.4238 -19.1835096 -3.1 43.227359
174 58 7 0.4238 -20.8164904 -3.1 43.227359
175 59 6 -0.8476 -20.0 -3.1 46.1
176 59 7 0.4238 -19.1835096 -3.1 46.677359
177 59 7 0.4238 -20.8164904 -3.1 46.677359
178 60 6 -0.8476 -20.0 -3.1 49.55
179 60 7 0.4238 -19.1835096 -3.1 50.127359
180 60 7 0.4238 -20.8164904 -3.1 50.127359
181 61 6 -0.8476 -20.0 0.35 -16.0
182 61 7 0.4238 -19.1835096 0.35 -15.422641
183 61 7 0.4238 -20.8164904 0.35 -15.422641
184 62 6 -0.8476 -20.0 0.35 -12.55
185 62 7 0.4238 -19.1835096 0.35 -11.972641
186 62 7 0.4238 -20.8164904 0.35 -11.972641
187 63 6 -0.8476 -20.0 0.35 -9.1
188 63 7 0.4238 -19.1835096 0.35 -8.522641
189 63 7 0.4238 -20.8164904 0.35 -8.522641
190 64 6 -0.8476 -20.0 0.35 -5.65
191 64 7 0.4238 -19.1835096 0.35 -5.072641
192 64 7 0.4238 -20.8164904 0.35 -5.072641
193 65 6 -0.8476 -20.0 0.35 -2.2
194 65 7 0.4238 -19.1835096 0.35 -1.622641
195 65 7 0.4238 -20.8164904 0.35 -1.622641
196 66 6 -0.8476 -20.0 0.35 1.25
197 66 7 0.4238 -19.1835096 0.35 1.827359
198 66 7 0.4238 -20.8164904 0.35 1.827359
199 67 6 -0.8476 -20.0 0.35 4.7
200 67 7 0.4238 -19.1835096 0.35 5.277359
201 67 7 0.4238 -20.8164904 0.35 5.277359
202 68 6 -0.8476 -20.0 0.35 8.15
203 68 7 0.4238 -19.1835096 0.35 8.727359
204 68 7 0.4238 -20.8164904 0.35 8.727359
205 69 6 -0.8476 -20.0 0.35 11.6
206 69 7 0.4238 -19.1835096 0.35 12.177359
207 69 7 0.4238 -20.8164904 0.35 12.177359
208 70 6 -0.8476 -20.0 0.35 15.05
209 70 7 0.4238 -19.1835096 0.35 15.627359
210 70 7 0.4238 -20.8164904 0.35 15.627359
211 71 6 -0.8476 -20.0 0.35 18.5
212 71 7 0.4238 -19.1835096 0.35 19.077359
213 71 7 0.4238 -20.8164904 0.35 19.077359
214 72 6 -0.8476 -20.0 0.35 21.95
215 72 7 0.4238 -19.1835096 0.35 22.527359
216 72 7 0.4238 -20.8164904 0.35 22.527359
217 73 6 -0.8476 -20.0 0.35 25.4
218 73 7 0.4238 -19.1835096 0.35 25.977359
219 73 7 0.4238 -20.8164904 0.35 25.977359
220 74 6 -0.8476 -20.0 0.35 28.85
221 74 7 0.4238 -19.1835096 0.35 29.427359
222 74 7 0.4238 -20.8164904 0.35 29.427359
223 75 6 -0.8476 -20.0 0.35 32.3
224 75 7 0.4238 -19.1835096 0.35 32.877359
225 75 7 0.4238 -20.8164904 0.35 32.877359
226 76 6 -0.8476 -20.0 0.35 35.75
227 76 7 0.4238 -19.1835096 0.35 36.327359
228 76 7 0.4238 -20.8164904 0.35 36.327359
229 77 6 -0.8476 -20.0 0.35 39.2
230 77 7 0.4238 -19.1835096 0.35 39.777359
231 77 7 0.4238 -20.8164904 0.35 39.777359
232 78 6 -0.8476 -20.0 0.35 42.65
233 78 7 0.4238 -19.1835096 0.35 43.227359
234 78 7 0.4238 -20.8164904 0.35 43.227359
235 79 6 -0.8476 -20.0 0.35 46.1
236 79 7 0.4238 -19.1835096 0.35 46.677359
237 79 7 0.4238 -20.8164904 0.35 46.677359
238 80 6 -0.8476 -20.0 0.35 49.55
239 80 7 0.4238 -19.1835096 0.35 50.127359
240 80 7 0.4238 -20.8164904 0.35 50.127359
241 81 6 -0.8476 -20.0 3.8 -16.0
242 81 7 0.4238 -19.1835096 3.8 -15.422641
243 81 7 0.4238 -20.8164904 3.8 -15.422641
244 82 6 -0.8476 -20.0 3.8 -12.55
245 82 7 0.4238 -19.1835096 3.8 -11.972641
246 82 7 0.4238 -20.8164904 3.8 -11.972641
247 83 6 -0.8476 -20.0 3.8 -9.1
248 83 7 0.4238 -19.1835096 3.8 -8.522641
249 83 7 0.4238 -20.8164904 3.8 -8.522641
250 84 6 -0.8476 -20.0 3.8 -5.65
251 84 7 0.4238 -19.1835096 3.8 -5.072641
252 84 7 0.4238 -20.8164904 3.8 -5.072641
253 85 6 -0.8476 -20.0 3.8 -2.2
254 85 7 0.4238 -19.1835096 3.8 -1.622641
255 85 7 0.4238 -20.8164904 3.8 -1.622641
256 86 6 -0.8476 -20.0 3.8 1.25
257 86 7 0.4238 -19.1835096 3.8 1.827359
258 86 7 0.4238 -20.8164904 3.8 1.827359
259 87 6 -0.8476 -20.0 3.8 4.7
260 87 7 0.4238 -19.1835096 3.8 5.277359
261 87 7 0.4238 -20.8164904 3.8 5.277359
262 88 6 -0.8476 -20.0 3.8 8.15
263 88 7 0.4238 -19.1835096 3.8 8.727359
264 88 7 0.4238 -20.8164904 3.8 8.727359
265 89 6 -0.8476 -20.0 3.8 11.6
266 89 7 0.4238 -19.1835096 3.8 12.177359
267 89 7 0.4238 -20.8164904 3.8 12.177359
268 90 6 -0.8476 -20.0 3.8 15.05
269 90 7 0.4238 -19.1835096 3.8 15.627359
270 90 7 0.4238 -20.8164904 3.8 15.627359
271 91 6 -0.8476 -20.0 3.8 18.5
272 91 7 0.4238 -19.1835096 3.8 19.077359
273 91 7 0.4238 -20.8164904 3.8 19.077359
274 92 6 -0.8476 -20.0 3.8 21.95
275 92 7 0.4238 -19.1835096 3.8 22.527359
276 92 7 0.4238 -20.8164904 3.8 22.527359
277 93 6 -0.8476 -20.0 3.8 25.4
278 93 7 0.4238 -19.1835096 3.8 25.977359
279 93 7 0.4238 -20.8164904 3.8 25.977359
280 94 6 -0.8476 -20.0 3.8 28.85
281 94 7 0.4238 -19.1835096 3.8 29.427359
282 94 7 0.4238 -20.8164904 3.8 29.427359
283 95 6 -0.8476 -20.0 3.8 32.3
284 95 7 0.4238 -19.1835096 3.8 32.877359
285 95 7 0.4238 -20.8164904 3.8 32.877359
286 96 6 -0.8476 -20.0 3.8 35.75
287 96 7 0.4238 -19.1835096 3.8 36.327359
288 96 7 0.4238 -20.8164904 3.8 36.327359
289 97 6 -0.8476 -20.0 3.8 39.2
290 97 7 0.4238 -19.1835096 3.8 39.777359
291 97 7 0.4238 -20.8164904 3.8 39.777359
292 98 6 -0.8476 -20.0 3.8 42.65
293 98 7 0.4238 -19.1835096 3.8 43.227359
294 98 7 0.4238 -20.8164904 3.8 43.227359
295 99 6 -0.8476 -20.0 3.8 46.1
296 99 7 0.4238 -19.1835096 3.8 46.677359
297 99 7 0.4238 -20.8164904 3.8 46.677359
298 100 6 -0.8476 -20.0 3.8 49.55
299 100 7 0.4238 -19.1835096 3.8 50.127359
300 100 7 0.4238 -20.8164904 3.8 50.127359
301 101 6 -0.8476 -20.0 7.25 -16.0
302 101 7 0.4238 -19.1835096 7.25 -15.422641
303 101 7 0.4238 -20.8164904 7.25 -15.422641
304 102 6 -0.8476 -20.0 7.25 -12.55
305 102 7 0.4238 -19.1835096 7.25 -11.972641
306 102 7 0.4238 -20.8164904 7.25 -11.972641
307 103 6 -0.8476 -20.0 7.25 -9.1
308 103 7 0.4238 -19.1835096 7.25 -8.522641
309 103 7 0.4238 -20.8164904 7.25 -8.522641
310 104 6 -0.8476 -20.0 7.25 -5.65
311 104 7 0.4238 -19.1835096 7.25 -5.072641
312 104 7 0.4238 -20.8164904 7.25 -5.072641
313 105 6 -0.8476 -20.0 7.25 -2.2
314 105 7 0.4238 -19.1835096 7.25 -1.622641
315 105 7 0.4238 -20.8164904 7.25 -1.622641
316 106 6 -0.8476 -20.0 7.25 1.25
317 106 7 0.4238 -19.1835096 7.25 1.827359
318 106 7 0.4238 -20.8164904 7.25 1.827359
319 107 6 -0.8476 -20.0 7.25 4.7
320 107 7 0.4238 -19.1835096 7.25 5.277359
321 107 7 0.4238 -20.8164904 7.25 5.277359
322 108 6 -0.8476 -20.0 7.25 8.15
323 108 7 0.4238 -19.1835096 7.25 8.727359
324 108 7 0.4238 -20.8164904 7.25 8.727359
325 109 6 -0.8476 -20.0 7.25 11.6
326 109 7 0.4238 -19.1835096 7.25 12.177359
327 109 7 0.4238 -20.8164904 7.25 12.177359
328 110 6 -0.8476 -20.0 7.25 15.05
329 110 7 0.4238 -19.1835096 7.25 15.627359
330 110 7 0.4238 -20.8164904 7.25 15.627359
331 111 6 -0.8476 -20.0 7.25 18.5
332 111 7 0.4238 -19.1835096 7.25 19.077359
333 111 7 0.4238 -20.8164904 7.25 19.077359
334 112 6 -0.8476 -20.0 7.25 21.95
335 112 7 0.4238 -19.1835096 7.25 22.527359
336 112 7 0.4238 -20.8164904 7.25 22.527359
337 113 6 -0.8476 -20.0 7.25 25.4
338 113 7 0.4238 -19.1835096 7.25 25.977359
339 113 7 0.4238 -20.8164904 7.25 25.977359
340 114 6 -0.8476 -20.0 7.25 28.85
341 114 7 0.4238 -19.1835096 7.25 29.427359
342 114 7 0.4238 -20.8164904 7.25 29.427359
343 115 6 -0.8476 -20.0 7.25 32.3
344 115 7 0.4238 -19.1835096 7.25 32.877359
345 115 7 0.4238 -20.8164904 7.25 32.877359
346 116 6 -0.8476 -20.0 7.25 35.75
347 116 7 0.4238 -19.1835096 7.25 36.327359
348 116 7 0.4238 -20.8164904 7.25 36.327359
349 117 6 -0.8476 -20.0 7.25 39.2
350 117 7 0.4238 -19.1835096 7.25 39.777359
351 117 7 0.4238 -20.8164904 7.25 39.777359
352 118 6 -0.8476 -20.0 7.25 42.65
353 118 7 0.4238 -19.1835096 7.25 43.227359
354 118 7 0.4238 -20.8164904 7.25 43.227359
355 119 6 -0.8476 -20.0 7.25 46.1
356 119 7 0.4238 -19.1835096 7.25 46.677359
357 119 7 0.4238 -20.8164904 7.25 46.677359
358 120 6 -0.8476 -20.0 7.25 49.55
359 120 7 0.4238 -19.1835096 7.25 50.127359
360 120 7 0.4238 -20.8164904 7.25 50.127359
361 121 6 -0.8476 -20.0 10.7 -16.0
362 121 7 0.4238 -19.1835096 10.7 -15.422641
363 121 7 0.4238 -20.8164904 10.7 -15.422641
364 122 6 -0.8476 -20.0 10.7 -12.55
365 122 7 0.4238 -19.1835096 10.7 -11.972641
366 122 7 0.4238 -20.8164904 10.7 -11.972641
367 123 6 -0.8476 -20.0 10.7 -9.1
368 123 7 0.4238 -19.1835096 10.7 -8.522641
369 123 7 0.4238 -20.8164904 10.7 -8.522641
370 124 6 -0.8476 -20.0 10.7 -5.65
371 124 7 0.4238 -19.1835096 10.7 -5.072641
372 124 7 0.4238 -20.8164904 10.7 -5.072641
373 125 6 -0.8476 -20.0 10.7 -2.2
374 125 7 0.4238 -19.1835096 10.7 -1.622641
375 125 7 0.4238 -20.8164904 10.7 -1.622641
376 126 6 -0.8476 -20.0 10.7 1.25
377 126 7 0.4238 -19.1835096 10.7 1.827359
378 126 7 0.4238 -20.8164904 10.7 1.827359
379 127 6 -0.8476 -20.0 10.7 4.7
380 127 7 0.4238 -19.1835096 10.7 5.277359
381 127 7 0.4238 -20.8164904 10.7 5.277359
382 128 6 -0.8476 -20.0 10.7 8.15
383 128 7 0.4238 -19.1835096 10.7 8.727359
384 128 7 0.4238 -20.8164904 10.7 8.727359
385 129 6 -0.8476 -20.0 10.7 11.6
386 129 7 0.4238 -19.1835096 10.7 12.177359
387 129 7 0.4238 -20.8164904 10.7 12.177359
388 130 6 -0.8476 -20.0 10.7 15.05
389 130 7 0.4238 -19.1835096 10.7 15.627359
390 130 7 0.4238 -20.8164904 10.7 15.627359
391 131 6 -0.8476 -20.0 10.7 18.5
392 131 7 0.4238 -19.1835096 10.7 19.077359
393 131 7 0.4238 -20.8164904 10.7 19.077359
394 132 6 -0.8476 -20.0 10.7 21.95
395 132 7 0.4238 -19.1835096 10.7 22.527359
396 132 7 0.4238 -20.8164904 10.7 22.527359
397 133 6 -0.8476 -20.0 10.7 25.4
398 133 7 0.4238 -19.1835096 10.7 25.977359
399 133 7 0.4238 -20.8164904 10.7 25.977359
400 134 6 -0.8476 -20.0 10.7 28.85
401 134 7 0.4238 -19.1835096 10.7 29.427359
402 134 7 0.4238 -20.8164904 10.7 29.427359
403 135 6 -0.8476 -20.0 10.7 32.3
404 135 7 0.4238 -19.1835096 10.7 32.877359
405 135 7 0.4238 -20.8164904 10.7 32.877359
406 136 6 -0.8476 -20.0 10.7 35.75
407 136 7 0.4238 -19.1835096 10.7 36.327359
408 136 7 0.4238 -20.8164904 10.7 36.327359
409 137 6 -0.8476 -20.0 10.7 39.2
410 137 7 0.4238 -19.1835096 10.7 39.777359
411 137 7 0.4238 -20.8164904 10.7 39.777359
412 138 6 -0.8476 -20.0 10.7 42.65
413 138 7 0.4238 -19.1835096 10.7 43.227359
414 138 7 0.4238 -20.8164904 10.7 43.227359
415 139 6 -0.8476 -20.0 10.7 46.1
416 139 7 0.4238 -19.1835096 10.7 46.677359
417 139 7 0.4238 -20.8164904 10.7 46.677359
418 140 6 -0.8476 -20.0 10.7 49.55
419 140 7 0.4238 -19.1835096 10.7 50.127359
420 140 7 0.4238 -20.8164904 10.7 50.127359
421 141 6 -0.8476 -20.0 14.15 -16.0
422 141 7 0.4238 -19.1835096 14.15 -15.422641
423 141 7 0.4238 -20.8164904 14.15 -15.422641
424 142 6 -0.8476 -20.0 14.15 -12.55
425 142 7 0.4238 -19.1835096 14.15 -11.972641
426 142 7 0.4238 -20.8164904 14.15 -11.972641
427 143 6 -0.8476 -20.0 14.15 -9.1
428 143 7 0.4238 -19.1835096 14.15 -8.522641
429 143 7 0.4238 -20.8164904 14.15 -8.522641
430 144 6 -0.8476 -20.0 14.15 -5.65
431 144 7 0.4238 -19.1835096 14.15 -5.072641
432 144 7 0.4238 -20.8164904 14.15 -5.072641
433 145 6 -0.8476 -20.0 14.15 -2.2
434 145 7 0.4238 -19.1835096 14.15 -1.622641
435 145 7 0.4238 -20.8164904 14.15 -1.622641
436 146 6 -0.8476 -20.0 14.15 1.25
437 146 7 0.4238 -19.1835096 14.15 1.827359
438 146 7 0.4238 -20.8164904 14.15 1.827359
439 147 6 -0.8476 -20.0 14.15 4.7
440 147 7 0.4238 -19.1835096 14.15 5.277359
441 147 7 0.4238 -20.8164904 14.15 5.277359
442 148 6 -0.8476 -20.0 14.15 8.15
443 148 7 0.4238 -19.1835096 14.15 8.727359
444 148 7 0.4238 -20.8164904 14.15 8.727359
445 149 6 -0.8476 -20.0 14.15 11.6
446 149 7 0.4238 -19.1835096 14.15 12.177359
447 149 7 0.4238 -20.8164904 14.15 12.177359
448 150 6 -0.8476 -20.0 14.15 15.05
449 150 7 0.4238 -19.1835096 14.15 15.627359
450 150 7 0.4238 -20.8164904 14.15 15.627359
451 151 6 -0.8476 -20.0 14.15 18.5
452 151 7 0.4238 -19.1835096 14.15 19.077359
453 151 7 0.4238 -20.8164904 14.15 19.077359
454 152 6 -0.8476 -20.0 14.15 21.95
455 152 7 0.4238 -19.1835096 14.15 22.527359
456 152 7 0.4238 -20.8164904 14.15 22.527359
457 153 6 -0.8476 -20.0 14.15 25.4
458 153 7 0.4238 -19.1835096 14.15 25.977359
459 153 7 0.4238 -20.8164904 14.15 25.977359
460 154 6 -0.8476 -20.0 14.15 28.85
461 154 7 0.4238 -19.1835096 14.15 29.427359
462 154 7 0.4238 -20.8164904 14.15 29.427359
463 155 6 -0.8476 -20.0 14.15 32.3
464 155 7 0.4238 -19.1835096 14.15 32.877359
465 155 7 0.4238 -20.8164904 14.15 32.877359
466 156 6 -0.8476 -20.0 14.15 35.75
467 156 7 0.4238 -19.1835096 14.15 36.327359
468 156 7 0.4238 -20.8164904 14.15 36.327359
469 157 6 -0.8476 -20.0 14.15 39.2
470 157 7 0.4238 -19.1835096 14.15 39.777359
471 157 7 0.4238 -20.8164904 14.15 39.777359
472 158 6 -0.8476 -20.0 14.15 42.65
473 158 7 0.4238 -19.1835096 14.15 43.227359
474 158 7 0.4238 -20.8164904 14.15 43.227359
475 159 6 -0.8476 -20.0 14.15 46.1
476 159 7 0.4238 -19.1835096 14.15 46.677359
477 159 7 0.4238 -20.8164904 14.15 46.677359
478 160 6 -0.8476 -20.0 14.15 49.55
479 160 7 0.4238 -19.1835096 14.15 50.127359
480 160 7 0.4238 -20.8164904 14.15 50.127359
481 161 6 -0.8476 -20.0 17.6 -16.0
482 161 7 0.4238 -19.1835096 17.6 -15.422641
483 161 7 0.4238 -20.8164904 17.6 -15.422641
484 162 6 -0.8476 -20.0 17.6 -12.55
485 162 7 0.4238 -19.1835096 17.6 -11.972641
486 162 7 0.4238 -20.8164904 17.6 -11.972641
487 163 6 -0.8476 -20.0 17.6 -9.1
488 163 7 0.4238 -19.1835096 17.6 -8.522641
489 163 7 0.4238 -20.8164904 17.6 -8.522641
490 164 6 -0.8476 -20.0 17.6 -5.65
491 164 7 0.4238 -19.1835096 17.6 -5.072641
492 164 7 0.4238 -20.8164904 17.6 -5.072641
493 165 6 -0.8476 -20.0 17.6 -2.2
494 165 7 0.4238 -19.1835096 17.6 -1.622641
495 165 7 0.4238 -20.8164904 17.6 -1.622641
496 166 6 -0.8476 -20.0 17.6 1.25
497 166 7 0.4238 -19.1835096 17.6 1.827359
498 166 7 0.4238 -20.8164904 17.6 1.827359
499 167 6 -0.8476 -20.0 17.6 4.7
500 167 7 0.4238 -19.1835096 17.6 5.277359
501 167 7 0.4238 -20.8164904 17.6 5.277359
502 168 6 -0.8476 -20.0 17.6 8.15
503 168 7 0.4238 -19.1835096 17.6 8.727359
504 168 7 0.4238 -20.8164904 17.6 8.727359
505 169 6 -0.8476 -20.0 17.6 11.6
506 169 7 0.4238 -19.1835096 17.6 12.177359
507 169 7 0.4238 -20.8164904 17.6 12.177359
508 170 6 -0.8476 -20.0 17.6 15.05
509 170 7 0.4238 -19.1835096 17.6 15.627359
510 170 7 0.4238 -20.8164904 17.6 15.627359
511 171 6 -0.8476 -20.0 17.6 18.5
512 171 7 0.4238 -19.1835096 17.6 19.077359
513 171 7 0.4238 -20.8164904 17.6 19.077359
514 172 6 -0.8476 -20.0 17.6 21.95
515 172 7 0.4238 -19.1835096 17.6 22.527359
516 172 7 0.4238 -20.8164904 17.6 22.527359
517 173 6 -0.8476 -20.0 17.6 25.4
518 173 7 0.4238 -19.1835096 17.6 25.977359
519 173 7 0.4238 -20.8164904 17.6 25.977359
520 174 6 -0.8476 -20.0 17.6 28.85
521 174 7 0.4238 -19.1835096 17.6 29.427359
522 174 7 0.4238 -20.8164904 17.6 29.427359
523 175 6 -0.8476 -20.0 17.6 32.3
524 175 7 0.4238 -19.1835096 17.6 32.877359
525 175 7 0.4238 -20.8164904 17.6 32.877359
526 176 6 -0.8476 -20.0 17.6 35.75
527 176 7 0.4238 -19.1835096 17.6 36.327359
528 176 7 0.4238 -20.8164904 17.6 36.327359
529 177 6 -0.8476 -20.0 17.6 39.2
530 177 7 0.4238 -19.1835096 17.6 39.777359
531 177 7 0.4238 -20.8164904 17.6 39.777359
532 178 6 -0.8476 -20.0 17.6 42.65
533 178 7 0.4238 -19.1835096 17.6 43.227359
534 178 7 0.4238 -20.8164904 17.6 43.227359
535 179 6 -0.8476 -20.0 17.6 46.1
536 179 7 0.4238 -19.1835096 17.6 46.677359
537 179 7 0.4238 -20.8164904 17.6 46.677359
538 180 6 -0.8476 -20.0 17.6 49.55
539 180 7 0.4238 -19.1835096 17.6 50.127359
540 180 7 0.4238 -20.8164904 17.6 50.127359
541 181 6 -0.8476 -20.0 21.05 -16.0
542 181 7 0.4238 -19.1835096 21.05 -15.422641
543 181 7 0.4238 -20.8164904 21.05 -15.422641
544 182 6 -0.8476 -20.0 21.05 -12.55
545 182 7 0.4238 -19.1835096 21.05 -11.972641
546 182 7 0.4238 -20.8164904 21.05 -11.972641
547 183 6 -0.8476 -20.0 21.05 -9.1
548 183 7 0.4238 -19.1835096 21.05 -8.522641
549 183 7 0.4238 -20.8164904 21.05 -8.522641
550 184 6 -0.8476 -20.0 21.05 -5.65
551 184 7 0.4238 -19.1835096 21.05 -5.072641
552 184 7 0.4238 -20.8164904 21.05 -5.072641
553 185 6 -0.8476 -20.0 21.05 -2.2
554 185 7 0.4238 -19.1835096 21.05 -1.622641
555 185 7 0.4238 -20.8164904 21.05 -1.622641
556 186 6 -0.8476 -20.0 21.05 1.25
557 186 7 0.4238 -19.1835096 21.05 1.827359
558 186 7 0.4238 -20.8164904 21.05 1.827359
559 187 6 -0.8476 -20.0 21.05 4.7
560 187 7 0.4238 -19.1835096 21.05 5.277359
561 187 7 0.4238 -20.8164904 21.05 5.277359
562 188 6 -0.8476 -20.0 21.05 8.15
563 188 7 0.4238 -19.1835096 21.05 8.727359
564 188 7 0.4238 -20.8164904 21.05 8.727359
565 189 6 -0.8476 -20.0 21.05 11.6
566 189 7 0.4238 -19.1835096 21.05 12.177359
567 189 7 0.4238 -20.8164904 21.05 12.177359
568 190 6 -0.8476 -20.0 21.05 15.05
569 190 7 0.4238 -19.1835096 21.05 15.627359
570 190 7 0.4238 -20.8164904 21.05 15.627359
571 191 6 -0.8476 -20.0 21.05 18.5
572 191 7 0.4238 -19.1835096 21.05 19.077359
573 191 7 0.4238 -20.8164904 21.05 19.077359
574 192 6 -0.8476 -20.0 21.05 21.95
575 192 7 0.4238 -19.1835096 21.05 22.527359
576 192 7 0.4238 -20.8164904 21.05 22.527359
577 193 6 -0.8476 -20.0 21.05 25.4
578 193 7 0.4238 -19.1835096 21.05 25.977359
579 193 7 0.4238 -20.8164904 21.05 25.977359
580 194 6 -0.8476 -20.0 21.05 28.85
581 194 7 0.4238 -19.1835096 21.05 29.427359
582 194 7 0.4238 -20.8164904 21.05 29.427359
583 195 6 -0.8476 -20.0 21.05 32.3
584 195 7 0.4238 -19.1835096 21.05 32.877359
585 195 7 0.4238 -20.8164904 21.05 32.877359
586 196 6 -0.8476 -20.0 21.05 35.75
587 196 7 0.4238 -19.1835096 21.05 36.327359
588 196 7 0.4238 -20.8164904 21.05 36.327359
589 197 6 -0.8476 -20.0 21.05 39.2
590 197 7 0.4238 -19.1835096 21.05 39.777359
591 197 7 0.4238 -20.8164904 21.05 39.777359
592 198 6 -0.8476 -20.0 21.05 42.65
593 198 7 0.4238 -19.1835096 21.05 43.227359
594 198 7 0.4238 -20.8164904 21.05 43.227359
595 199 6 -0.8476 -20.0 21.05 46.1
596 199 7 0.4238 -19.1835096 21.05 46.677359
597 199 7 0.4238 -20.8164904 21.05 46.677359
598 200 6 -0.8476 -20.0 21.05 49.55
599 200 7 0.4238 -19.1835096 21.05 50.127359
600 200 7 0.4238 -20.8164904 21.05 50.127359
601 201 6 -0.8476 -20.0 24.5 -16.0
602 201 7 0.4238 -19.1835096 24.5 -15.422641
603 201 7 0.4238 -20.8164904 24.5 -15.422641
604 202 6 -0.8476 -20.0 24.5 -12.55
605 202 7 0.4238 -19.1835096 24.5 -11.972641
606 202 7 0.4238 -20.8164904 24.5 -11.972641
607 203 6 -0.8476 -20.0 24.5 -9.1
608 203 7 0.4238 -19.1835096 24.5 -8.522641
609 203 7 0.4238 -20.8164904 24.5 -8.522641
610 204 6 -0.8476 -20.0 24.5 -5.65
611 204 7 0.4238 -19.1835096 24.5 -5.072641
612 204 7 0.4238 -20.8164904 24.5 -5.072641
613 205 6 -0.8476 -20.0 24.5 -2.2
614 205 7 0.4238 -19.1835096 24.5 -1.622641
615 205 7 0.4238 -20.8164904 24.5 -1.622641
616 206 6 -0.8476 -20.0 24.5 1.25
617 206 7 0.4238 -19.1835096 24.5 1.827359
618 206 7 0.4238 -20.8164904 24.5 1.827359
619 207 6 -0.8476 -20.0 24.5 4.7
620 207 7 0.4238 -19.1835096 24.5 5.277359
621 207 7 0.4238 -20.8164904 24.5 5.277359
622 208 6 -0.8476 -20.0 24.5 8.15
623 208 7 0.4238 -19.1835096 24.5 8.727359
624 208 7 0.4238 -20.8164904 24.5 8.727359
625 209 6 -0.8476 -20.0 24.5 11.6
626 209 7 0.4238 -19.1835096 24.5 12.177359
627 209 7 0.4238 -20.8164904 24.5 12.177359
628 210 6 -0.8476 -20.0 24.5 15.05
629 210 7 0.4238 -19.1835096 24.5 15.627359
630 210 7 0.4238 -20.8164904 24.5 15.627359
631 211 6 -0.8476 -20.0 24.5 18.5
632 211 7 0.4238 -19.1835096 24.5 19.077359
633 211 7 0.4238 -20.8164904 24.5 19.077359
634 212 6 -0.8476 -20.0 24.5 21.95
635 212 7 0.4238 -19.1835096 24.5 22.527359
636 212 7 0.4238 -20.8164904 24.5 22.527359
637 213 6 -0.8476 -20.0 24.5 25.4
638 213 7 0.4238 -19.1835096 24.5 25.977359
639 213 7 0.4238 -20.8164904 24.5 25.977359
640 214 6 -0.8476 -20.0 24.5 28.85
641 214 7 0.4238 -19.1835096 24.5 29.427359
642 214 7 0.4238 -20.8164904 24.5 29.427359
643 215 6 -0.8476 -20.0 24.5 32.3
644 215 7 0.4238 -19.1835096 24.5 32.877359
645 215 7 0.4238 -20.8164904 24.5 32.877359
646 216 6 -0.8476 -20.0 24.5 35.75
647 216 7 0.4238 -19.1835096 24.5 36.327359
648 216 7 0.4238 -20.8164904 24.5 36.327359
649 217 6 -0.8476 -20.0 24.5 39.2
650 217 7 0.4238 -19.1835096 24.5 39.777359
651 217 7 0.4238 -20.8164904 24.5 39.777359
652 218 6 -0.8476 -20.0 24.5 42.65
653 218 7 0.4238 -19.1835096 24.5 43.227359
654 218 7 0.4238 -20.8164904 24.5 43.227359
655 219 6 -0.8476 -20.0 24.5 46.1
656 219 7 0.4238 -19.1835096 24.5 46.677359
657 219 7 0.4238 -20.8164904 24.5 46.677359
658 220 6 -0.8476 -20.0 24.5 49.55
659 220 7 0.4238 -19.1835096 24.5 50.127359
660 220 7 0.4238 -20.8164904 24.5 50.127359
661 221 6 -0.8476 -20.0 27.95 -16.0
662 221 7 0.4238 -19.1835096 27.95 -15.422641
663 221 7 0.4238 -20.8164904 27.95 -15.422641
664 222 6 -0.8476 -20.0 27.95 -12.55
665 222 7 0.4238 -19.1835096 27.95 -11.972641
666 222 7 0.4238 -20.8164904 27.95 -11.972641
667 223 6 -0.8476 -20.0 27.95 -9.1
668 223 7 0.4238 -19.1835096 27.95 -8.522641
669 223 7 0.4238 -20.8164904 27.95 -8.522641
670 224 6 -0.8476 -20.0 27.95 -5.65
671 224 7 0.4238 -19.1835096 27.95 -5.072641
672 224 7 0.4238 -20.8164904 27.95 -5.072641
673 225 6 -0.8476 -20.0 27.95 -2.2
674 225 7 0.4238 -19.1835096 27.95 -1.622641
675 225 7 0.4238 -20.8164904 27.95 -1.622641
676 226 6 -0.8476 -20.0 27.95 1.25
677 226 7 0.4238 -19.1835096 27.95 1.827359
678 226 7 0.4238 -20.8164904 27.95 1.827359
679 227 6 -0.8476 -20.0 27.95 4.7
680 227 7 0.4238 -19.1835096 27.95 5.277359
681 227 7 0.4238 -20.8164904 27.95 5.277359
682 228 6 -0.8476 -20.0 27.95 8.15
683 228 7 0.4238 -19.1835096 27.95 8.727359
684 228 7 0.4238 -20.8164904 27.95 8.727359
685 229 6 -0.8476 -20.0 27.95 11.6
686 229 7 0.4238 -19.1835096 27.95 12.177359
687 229 7 0.4238 -20.8164904 27.95 12.177359
688 230 6 -0.8476 -20.0 27.95 15.05
689 230 7 0.4238 -19.1835096 27.95 15.627359
690 230 7 0.4238 -20.8164904 27.95 15.627359
691 231 6 -0.8476 -20.0 27.95 18.5
692 231 7 0.4238 -19.1835096 27.95 19.077359
693 231 7 0.4238 -20.8164904 27.95 19.077359
694 232 6 -0.8476 -20.0 27.95 21.95
695 232 7 0.4238 -19.1835096 27.95 22.527359
696 232 7 0.4238 -20.8164904 27.95 22.527359
697 233 6 -0.8476 -20.0 27.95 25.4
698 233 7 0.4238 -19.1835096 27.95 25.977359
699 233 7 0.4238 -20.8164904 27.95 25.977359
700 234 6 -0.8476 -20.0 27.95 28.85
701 234 7 0.4238 -19.1835096 27.95 29.427359
702 234 7 0.4238 -20.8164904 27.95 29.427359
703 235 6 -0.8476 -20.0 27.95 32.3
704 235 7 0.4238 -19.1835096 27.95 32.877359
705 235 7 0.4238 -20.8164904 27.95 32.877359
706 236 6 -0.8476 -20.0 27.95 35.75
707 236 7 0.4238 -19.1835096 27.95 36.327359
708 236 7 0.4238 -20.8164904 27.95 36.327359
709 237 6 -0.8476 -20.0 27.95 39.2
710 237 7 0.4238 -19.1835096 27.95 39.777359
711 237 7 0.4238 -20.8164904 27.95 39.777359
712 238 6 -0.8476 -20.0 27.95 42.65
713 238 7 0.4238 -19.1835096 27.95 43.227359
714 238 7 0.4238 -20.8164904 27.95 43.227359
715 239 6 -0.8476 -20.0 27.95 46.1
716 239 7 0.4238 -19.1835096 27.95 46.677359
717 239 7 0.4238 -20.8164904 27.95 46.677359
718 240 6 -0.8476 -20.0 27.95 49.55
719 240 7 0.4238 -19.1835096 27.95 50.127359
720 240 7 0.4238 -20.8164904 27.95 50.127359
721 241 6 -0.8476 -20.0 31.4 -16.0
722 241 7 0.4238 -19.1835096 31.4 -15.422641
723 241 7 0.4238 -20.8164904 31.4 -15.422641
724 242 6 -0.8476 -20.0 31.4 -12.55
725 242 7 0.4238 -19.1835096 31.4 -11.972641
726 242 7 0.4238 -20.8164904 31.4 -11.972641
727 243 6 -0.8476 -20.0 31.4 -9.1
728 243 7 0.4238 -19.1835096 31.4 -8.522641
729 243 7 0.4238 -20.8164904 31.4 -8.522641
730 244 6 -0.8476 -20.0 31.4 -5.65
731 244 7 0.4238 -19.1835096 31.4 -5.072641