ITEM: TIMESTEP
0
ITEM: NUMBER OF ATOMS
185
ITEM: BOX BOUNDS pp pp pp
-100 100
-100 100
-100 100
ITEM: ATOMS id mol type x y z ix iy iz 
1 1 3 4.5341 2.9903 3.321 0 0 0 
2 1 3 4.5341 5.9897 3.321 0 0 0 
4 1 3 1.9441 1.4997 3.321 0 0 0 
5 1 1 2.8946 2.9544 0.645 0 0 0 
6 1 1 2.8946 6.0256 0.645 0 0 0 
8 1 1 3.584 1.5356 5.9985 0 0 0 
10 1 1 0.3046 1.5356 0.645 0 0 0 
11 1 1 0.994 2.9544 5.9985 0 0 0 
12 1 1 0.994 6.0256 5.9985 0 0 0 
13 1 2 2.6594 4.49 0.1485 0 0 0 
14 1 2 4.289 6.5374 0 0 0 0 
15 1 2 4.289 2.4426 0 0 0 0 
16 1 2 2.5662 0 2.28 0 0 0 
17 1 2 2.9433 6.2052 2.2305 0 0 0 
18 1 2 2.964 2.7748 2.2305 0 0 0 
19 1 2 3.8192 0 6.4935 0 0 0 
20 1 2 2.1896 2.0474 6.642 0 0 0 
22 1 2 3.9125 4.49 4.362 0 0 0 
23 1 2 3.5348 1.7152 4.4115 0 0 0 
25 1 2 0.0694 0 0.1485 0 0 0 
26 1 2 1.699 2.0474 0 0 0 0 
28 1 2 5.1562 4.49 2.28 0 0 0 
29 1 2 0.3533 1.7152 2.2305 0 0 0 
21 1 2 1.2292 4.49 6.4935 0 0 0 
31 1 2 4.7796 6.5374 6.642 0 0 0 
32 1 2 4.7796 2.4426 6.642 0 0 0 
33 1 2 1.3225 0 4.362 0 0 0 
34 1 2 0.9448 6.2052 4.4115 0 0 0 
35 1 2 0.9241 2.7748 4.4115 0 0 0 
47 2 1 5.4846 1.5356 0.645 0 0 0 
48 2 1 6.174 2.9544 5.9985 0 0 0 
49 2 1 6.174 6.0256 5.9985 0 0 0 
62 2 2 5.2494 0 0.1485 0 0 0 
66 2 2 5.5333 1.7152 2.2305 0 0 0 
58 2 2 6.4092 4.49 6.4935 0 0 0 
70 2 2 6.5025 0 4.362 0 0 0 
71 2 2 6.1248 6.2052 4.4115 0 0 0 
72 2 2 6.1041 2.7748 4.4115 0 0 0 
38 2 3 9.7141 2.9903 3.321 0 0 0 
39 2 3 9.7141 5.9897 3.321 0 0 0 
41 2 3 7.1241 1.4997 3.321 0 0 0 
42 2 1 8.0746 2.9544 0.645 0 0 0 
43 2 1 8.0746 6.0256 0.645 0 0 0 
45 2 1 8.764 1.5356 5.9985 0 0 0 
50 2 2 7.8394 4.49 0.1485 0 0 0 
51 2 2 9.469 6.5374 0 0 0 0 
52 2 2 9.469 2.4426 0 0 0 0 
53 2 2 7.7462 0 2.28 0 0 0 
54 2 2 8.1233 6.2052 2.2305 0 0 0 
55 2 2 8.144 2.7748 2.2305 0 0 0 
56 2 2 8.9992 0 6.4935 0 0 0 
57 2 2 7.3696 2.0474 6.642 0 0 0 
59 2 2 9.0925 4.49 4.362 0 0 0 
60 2 2 8.7148 1.7152 4.4115 0 0 0 
63 2 2 6.879 2.0474 0 0 0 0 
65 2 2 10.3362 4.49 2.28 0 0 0 
68 2 2 9.9596 6.5374 6.642 0 0 0 
69 2 2 9.9596 2.4426 6.642 0 0 0 
78 3 3 12.3041 1.4997 3.321 0 0 0 
79 3 1 13.2546 2.9544 0.645 0 0 0 
80 3 1 13.2546 6.0256 0.645 0 0 0 
84 3 1 10.6646 1.5356 0.645 0 0 0 
85 3 1 11.354 2.9544 5.9985 0 0 0 
86 3 1 11.354 6.0256 5.9985 0 0 0 
87 3 2 13.0194 4.49 0.1485 0 0 0 
90 3 2 12.9262 0 2.28 0 0 0 
91 3 2 13.3033 6.2052 2.2305 0 0 0 
92 3 2 13.324 2.7748 2.2305 0 0 0 
94 3 2 12.5496 2.0474 6.642 0 0 0 
99 3 2 10.4294 0 0.1485 0 0 0 
100 3 2 12.059 2.0474 0 0 0 0 
103 3 2 10.7133 1.7152 2.2305 0 0 0 
95 3 2 11.5892 4.49 6.4935 0 0 0 
107 3 2 11.6825 0 4.362 0 0 0 
108 3 2 11.3048 6.2052 4.4115 0 0 0 
109 3 2 11.2841 2.7748 4.4115 0 0 0 
75 3 3 14.8941 2.9903 3.321 0 0 0 
76 3 3 14.8941 5.9897 3.321 0 0 0 
82 3 1 13.944 1.5356 5.9985 0 0 0 
88 3 2 14.649 6.5374 0 0 0 0 
89 3 2 14.649 2.4426 0 0 0 0 
93 3 2 14.1792 0 6.4935 0 0 0 
96 3 2 14.2725 4.49 4.362 0 0 0 
97 3 2 13.8948 1.7152 4.4115 0 0 0 
102 3 2 15.5162 4.49 2.28 0 0 0 
105 3 2 15.1396 6.5374 6.642 0 0 0 
106 3 2 15.1396 2.4426 6.642 0 0 0 
115 4 3 17.4841 1.4997 3.321 0 0 0 
116 4 1 18.4346 2.9544 0.645 0 0 0 
117 4 1 18.4346 6.0256 0.645 0 0 0 
119 4 1 19.124 1.5356 5.9985 0 0 0 
121 4 1 15.8446 1.5356 0.645 0 0 0 
122 4 1 16.534 2.9544 5.9985 0 0 0 
123 4 1 16.534 6.0256 5.9985 0 0 0 
124 4 2 18.1994 4.49 0.1485 0 0 0 
125 4 2 19.829 6.5374 0 0 0 0 
126 4 2 19.829 2.4426 0 0 0 0 
127 4 2 18.1062 0 2.28 0 0 0 
128 4 2 18.4833 6.2052 2.2305 0 0 0 
129 4 2 18.504 2.7748 2.2305 0 0 0 
130 4 2 19.3592 0 6.4935 0 0 0 
131 4 2 17.7296 2.0474 6.642 0 0 0 
133 4 2 19.4525 4.49 4.362 0 0 0 
134 4 2 19.0748 1.7152 4.4115 0 0 0 
136 4 2 15.6094 0 0.1485 0 0 0 
137 4 2 17.239 2.0474 0 0 0 0 
140 4 2 15.8933 1.7152 2.2305 0 0 0 
132 4 2 16.7692 4.49 6.4935 0 0 0 
144 4 2 16.8625 0 4.362 0 0 0 
145 4 2 16.4848 6.2052 4.4115 0 0 0 
146 4 2 16.4641 2.7748 4.4115 0 0 0 
112 4 3 20.0741 2.9903 3.321 0 0 0 
113 4 3 20.0741 5.9897 3.321 0 0 0 
139 4 2 20.6962 4.49 2.28 0 0 0 
142 4 2 20.3196 6.5374 6.642 0 0 0 
143 4 2 20.3196 2.4426 6.642 0 0 0 
149 5 3 25.2541 2.9903 3.321 0 0 0 
150 5 3 25.2541 5.9897 3.321 0 0 0 
152 5 3 22.6641 1.4997 3.321 0 0 0 
153 5 1 23.6146 2.9544 0.645 0 0 0 
154 5 1 23.6146 6.0256 0.645 0 0 0 
156 5 1 24.304 1.5356 5.9985 0 0 0 
158 5 1 21.0246 1.5356 0.645 0 0 0 
159 5 1 21.714 2.9544 5.9985 0 0 0 
160 5 1 21.714 6.0256 5.9985 0 0 0 
161 5 2 23.3794 4.49 0.1485 0 0 0 
162 5 2 25.009 6.5374 0 0 0 0 
163 5 2 25.009 2.4426 0 0 0 0 
164 5 2 23.2862 0 2.28 0 0 0 
165 5 2 23.6633 6.2052 2.2305 0 0 0 
166 5 2 23.684 2.7748 2.2305 0 0 0 
167 5 2 24.5392 0 6.4935 0 0 0 
168 5 2 22.9096 2.0474 6.642 0 0 0 
170 5 2 24.6325 4.49 4.362 0 0 0 
171 5 2 24.2548 1.7152 4.4115 0 0 0 
173 5 2 20.7894 0 0.1485 0 0 0 
174 5 2 22.419 2.0474 0 0 0 0 
176 5 2 25.8762 4.49 2.28 0 0 0 
177 5 2 21.0733 1.7152 2.2305 0 0 0 
169 5 2 21.9492 4.49 6.4935 0 0 0 
179 5 2 25.4996 6.5374 6.642 0 0 0 
180 5 2 25.4996 2.4426 6.642 0 0 0 
181 5 2 22.0425 0 4.362 0 0 0 
182 5 2 21.6648 6.2052 4.4115 0 0 0 
183 5 2 21.6441 2.7748 4.4115 0 0 0 
3 1 3 1.9441 7.4803 3.321 0 0 0 
7 1 1 3.584 7.4444 5.9985 0 0 0 
9 1 1 0.3046 7.4444 0.645 0 0 0 
24 1 2 3.5141 7.2648 4.4115 0 0 0 
27 1 2 1.699 6.9326 0 0 0 0 
30 1 2 0.374 7.2648 2.2305 0 0 0 
46 2 1 5.4846 7.4444 0.645 0 0 0 
67 2 2 5.554 7.2648 2.2305 0 0 0 
40 2 3 7.1241 7.4803 3.321 0 0 0 
44 2 1 8.764 7.4444 5.9985 0 0 0 
61 2 2 8.6941 7.2648 4.4115 0 0 0 
64 2 2 6.879 6.9326 0 0 0 0 
77 3 3 12.3041 7.4803 3.321 0 0 0 
83 3 1 10.6646 7.4444 0.645 0 0 0 
101 3 2 12.059 6.9326 0 0 0 0 
104 3 2 10.734 7.2648 2.2305 0 0 0 
81 3 1 13.944 7.4444 5.9985 0 0 0 
98 3 2 13.8741 7.2648 4.4115 0 0 0 
114 4 3 17.4841 7.4803 3.321 0 0 0 
118 4 1 19.124 7.4444 5.9985 0 0 0 
120 4 1 15.8446 7.4444 0.645 0 0 0 
135 4 2 19.0541 7.2648 4.4115 0 0 0 
138 4 2 17.239 6.9326 0 0 0 0 
141 4 2 15.914 7.2648 2.2305 0 0 0 
151 5 3 22.6641 7.4803 3.321 0 0 0 
155 5 1 24.304 7.4444 5.9985 0 0 0 
157 5 1 21.0246 7.4444 0.645 0 0 0 
172 5 2 24.2341 7.2648 4.4115 0 0 0 
175 5 2 22.419 6.9326 0 0 0 0 
178 5 2 21.094 7.2648 2.2305 0 0 0 
36 1 5 0.9806 0 10.8225 0 0 0 
37 1 5 3.5706 4.49 10.8225 0 0 0 
73 2 5 6.1606 0 10.8225 0 0 0 
74 2 5 8.7506 4.49 10.8225 0 0 0 
110 3 5 11.3406 0 10.8225 0 0 0 
111 3 5 13.9306 4.49 10.8225 0 0 0 
147 4 5 16.5206 0 10.8225 0 0 0 
148 4 5 19.1106 4.49 10.8225 0 0 0 
184 5 5 21.7006 0 10.8225 0 0 0 
185 5 5 24.2906 4.49 10.8225 0 0 0 
ITEM: TIMESTEP
9
ITEM: NUMBER OF ATOMS
185
ITEM: BOX BOUNDS pp pp pp
-100 100
-100 100
-100 100
ITEM: ATOMS id mol type x y z ix iy iz 
1 1 3 4.55503 2.97118 3.34321 0 0 0 
2 1 3 4.5504 5.99376 3.3671 0 0 0 
4 1 3 1.77303 1.53075 3.41515 0 0 0 
5 1 1 2.85147 2.90454 0.62647 0 0 0 
6 1 1 2.87429 6.04789 0.572316 0 0 0 
8 1 1 3.55224 1.44824 6.03532 0 0 0 
10 1 1 0.220205 1.4531 0.625463 0 0 0 
11 1 1 0.857219 2.91632 6.02977 0 0 0 
12 1 1 0.923945 5.98977 5.98365 0 0 0 
13 1 2 2.53681 4.4867 0.00357956 0 0 0 
14 1 2 4.36486 6.5628 -0.114286 0 0 0 
15 1 2 4.34466 2.47914 -0.15694 0 0 0 
16 1 2 2.51576 0.0425231 2.34387 0 0 0 
17 1 2 2.98928 6.32117 2.36445 0 0 0 
18 1 2 2.961 2.70108 2.40335 0 0 0 
19 1 2 3.86335 -0.247415 6.56274 0 0 0 
20 1 2 2.04445 2.05967 6.71675 0 0 0 
22 1 2 4.05291 4.54071 4.22038 0 0 0 
23 1 2 3.55007 1.80086 4.24366 0 0 0 
25 1 2 0.0386883 0.00270658 0.156832 0 0 0 
26 1 2 1.54107 1.95775 -0.0564956 0 0 0 
28 1 2 5.02811 4.49686 2.4321 0 0 0 
29 1 2 0.465621 1.71592 2.19839 0 0 0 
21 1 2 1.20817 4.59781 6.5032 0 0 0 
31 1 2 4.72867 6.60869 6.69539 0 0 0 
32 1 2 4.766 2.49063 6.74804 0 0 0 
33 1 2 1.44944 0.10989 4.25094 0 0 0 
34 1 2 1.01164 6.42291 4.44809 0 0 0 
35 1 2 1.02432 2.65407 4.33294 0 0 0 
47 2 1 5.46191 1.41953 0.626936 0 0 0 
48 2 1 6.18893 2.98042 5.97634 0 0 0 
49 2 1 6.22715 6.09513 6.08492 0 0 0 
62 2 2 5.20808 -0.245209 0.0790232 0 0 0 
66 2 2 5.53715 1.81916 2.36242 0 0 0 
58 2 2 6.48487 4.5209 6.57172 0 0 0 
70 2 2 6.61693 0.162475 4.2193 0 0 0 
71 2 2 6.07413 6.30582 4.3557 0 0 0 
72 2 2 6.10842 2.67318 4.28367 0 0 0 
38 2 3 9.71954 2.97199 3.31825 0 0 0 
39 2 3 9.7056 5.99378 3.36084 0 0 0 
41 2 3 7.13422 1.37876 3.31994 0 0 0 
42 2 1 8.0624 2.93071 0.675916 0 0 0 
43 2 1 8.05462 6.04955 0.605784 0 0 0 
45 2 1 8.77676 1.4212 6.02265 0 0 0 
50 2 2 7.76313 4.47513 0.0594981 0 0 0 
51 2 2 9.5005 6.54738 -0.0714446 0 0 0 
52 2 2 9.48294 2.48845 -0.10075 0 0 0 
53 2 2 7.63565 0.160898 2.42386 0 0 0 
54 2 2 8.20856 6.30706 2.30174 0 0 0 
55 2 2 8.1611 2.68131 2.36402 0 0 0 
56 2 2 9.0384 -0.249145 6.56442 0 0 0 
57 2 2 7.31095 2.00044 6.7411 0 0 0 
59 2 2 9.22743 4.53406 4.21156 0 0 0 
60 2 2 8.73344 1.83153 4.27095 0 0 0 
63 2 2 6.93388 1.99711 -0.0960091 0 0 0 
65 2 2 10.2065 4.49807 2.42032 0 0 0 
68 2 2 9.90993 6.60921 6.69305 0 0 0 
69 2 2 9.95904 2.49795 6.732 0 0 0 
78 3 3 12.3033 1.39282 3.32417 0 0 0 
79 3 1 13.2435 2.93188 0.677264 0 0 0 
80 3 1 13.2345 6.0489 0.606085 0 0 0 
84 3 1 10.6473 1.41862 0.621733 0 0 0 
85 3 1 11.353 2.97504 5.95945 0 0 0 
86 3 1 11.4079 6.09673 6.07582 0 0 0 
87 3 2 12.9439 4.47516 0.0577744 0 0 0 
90 3 2 12.8122 0.164173 2.42545 0 0 0 
91 3 2 13.389 6.3071 2.30199 0 0 0 
92 3 2 13.3402 2.67922 2.3651 0 0 0 
94 3 2 12.4914 2.00785 6.73758 0 0 0 
99 3 2 10.3879 -0.246124 0.0782271 0 0 0 
100 3 2 12.116 1.99851 -0.0993396 0 0 0 
103 3 2 10.6977 1.8299 2.37153 0 0 0 
95 3 2 11.6651 4.51689 6.56842 0 0 0 
107 3 2 11.7957 0.162365 4.21611 0 0 0 
108 3 2 11.2344 6.29901 4.34864 0 0 0 
109 3 2 11.2681 2.67974 4.29782 0 0 0 
75 3 3 14.9002 2.97207 3.31792 0 0 0 
76 3 3 14.8866 5.99305 3.36019 0 0 0 
82 3 1 13.9606 1.41899 6.02465 0 0 0 
88 3 2 14.6801 6.5471 -0.0711605 0 0 0 
89 3 2 14.6624 2.48878 -0.100403 0 0 0 
93 3 2 14.2225 -0.251575 6.56388 0 0 0 
96 3 2 14.4072 4.53408 4.21192 0 0 0 
97 3 2 13.913 1.8315 4.27201 0 0 0 
102 3 2 15.3866 4.49904 2.42016 0 0 0 
105 3 2 15.0893 6.60813 6.69517 0 0 0 
106 3 2 15.1381 2.49614 6.73319 0 0 0 
115 4 3 17.48 1.38772 3.32462 0 0 0 
116 4 1 18.4248 2.9338 0.672241 0 0 0 
117 4 1 18.4166 6.04838 0.604993 0 0 0 
119 4 1 19.1414 1.42048 6.02291 0 0 0 
121 4 1 15.8282 1.41912 0.621833 0 0 0 
122 4 1 16.5375 2.97548 5.96091 0 0 0 
123 4 1 16.5873 6.09628 6.07549 0 0 0 
124 4 2 18.1233 4.475 0.0573253 0 0 0 
125 4 2 19.8587 6.54659 -0.0741413 0 0 0 
126 4 2 19.8404 2.49074 -0.108115 0 0 0 
127 4 2 17.9918 0.16387 2.42463 0 0 0 
128 4 2 18.5641 6.30937 2.30247 0 0 0 
129 4 2 18.5125 2.67737 2.36834 0 0 0 
130 4 2 19.4002 -0.24902 6.56361 0 0 0 
131 4 2 17.6704 2.00463 6.73701 0 0 0 
133 4 2 19.5846 4.54915 4.21388 0 0 0 
134 4 2 19.0868 1.82444 4.27456 0 0 0 
136 4 2 15.5681 -0.245854 0.0783621 0 0 0 
137 4 2 17.2952 1.99731 -0.10033 0 0 0 
140 4 2 15.8784 1.82901 2.37142 0 0 0 
132 4 2 16.8423 4.51788 6.57031 0 0 0 
144 4 2 16.9746 0.162399 4.21701 0 0 0 
145 4 2 16.4144 6.29917 4.34926 0 0 0 
146 4 2 16.4476 2.67943 4.29421 0 0 0 
112 4 3 20.0615 2.98654 3.32764 0 0 0 
113 4 3 20.0563 5.98467 3.36918 0 0 0 
139 4 2 20.5667 4.50356 2.41603 0 0 0 
142 4 2 20.2555 6.61263 6.70436 0 0 0 
143 4 2 20.3017 2.49367 6.7502 0 0 0 
149 5 3 25.0925 3.01871 3.36625 0 0 0 
150 5 3 25.0886 5.78626 3.36406 0 0 0 
152 5 3 22.598 1.3197 3.31672 0 0 0 
153 5 1 23.7061 2.90337 0.642936 0 0 0 
154 5 1 23.6817 6.07462 0.612761 0 0 0 
156 5 1 24.3785 1.47513 6.08624 0 0 0 
158 5 1 21.0056 1.42258 0.617854 0 0 0 
159 5 1 21.7229 2.97471 5.96885 0 0 0 
160 5 1 21.7425 6.08523 6.08567 0 0 0 
161 5 2 23.3249 4.47948 0.0510946 0 0 0 
162 5 2 25.1883 6.61294 -0.06018 0 0 0 
163 5 2 25.2 2.37281 -0.0660991 0 0 0 
164 5 2 23.2047 0.139567 2.39502 0 0 0 
165 5 2 23.7331 6.38791 2.28201 0 0 0 
166 5 2 23.6477 2.63326 2.30632 0 0 0 
167 5 2 24.5934 -0.302537 6.5772 0 0 0 
168 5 2 22.8442 2.00754 6.77325 0 0 0 
170 5 2 24.855 4.57439 4.28064 0 0 0 
171 5 2 24.3341 1.74915 4.194 0 0 0 
173 5 2 20.7462 -0.249779 0.0780082 0 0 0 
174 5 2 22.4755 1.98466 -0.139531 0 0 0 
176 5 2 25.8752 4.63677 2.46005 0 0 0 
177 5 2 21.0342 1.83339 2.35743 0 0 0 
169 5 2 22.0337 4.51458 6.58135 0 0 0 
179 5 2 25.4785 6.56729 6.62367 0 0 0 
180 5 2 25.7273 2.60752 6.73878 0 0 0 
181 5 2 22.1334 0.124882 4.26325 0 0 0 
182 5 2 21.5814 6.29235 4.33647 0 0 0 
183 5 2 21.6126 2.68919 4.27661 0 0 0 
3 1 3 1.84704 7.07221 3.40002 0 0 0 
7 1 1 3.55465 7.50525 6.05499 0 0 0 
9 1 1 0.291517 7.40728 0.684888 0 0 0 
24 1 2 3.59736 7.25806 4.31115 0 0 0 
27 1 2 1.47913 7.10463 -0.0512267 0 0 0 
30 1 2 0.381227 7.40604 2.14215 0 0 0 
46 2 1 5.446 7.64683 0.589713 0 0 0 
67 2 2 5.52112 7.25978 2.39448 0 0 0 
40 2 3 7.11019 7.1764 3.26875 0 0 0 
44 2 1 8.75395 7.51863 6.0485 0 0 0 
61 2 2 8.7322 7.24381 4.31649 0 0 0 
64 2 2 6.90864 7.03468 -0.0561147 0 0 0 
77 3 3 12.296 7.17442 3.27479 0 0 0 
83 3 1 10.6301 7.64202 0.590047 0 0 0 
101 3 2 12.0872 7.03578 -0.0577722 0 0 0 
104 3 2 10.6876 7.25648 2.38822 0 0 0 
81 3 1 13.9375 7.52047 6.0481 0 0 0 
98 3 2 13.909 7.24458 4.31466 0 0 0 
114 4 3 17.4785 7.17379 3.27681 0 0 0 
118 4 1 19.1104 7.52378 6.04774 0 0 0 
120 4 1 15.8104 7.64115 0.590276 0 0 0 
135 4 2 19.086 7.24973 4.31517 0 0 0 
138 4 2 17.2675 7.03628 -0.0573201 0 0 0 
141 4 2 15.8673 7.25607 2.38839 0 0 0 
151 5 3 22.6485 7.2311 3.27044 0 0 0 
155 5 1 24.4814 7.47111 6.03571 0 0 0 
157 5 1 20.9914 7.64406 0.583721 0 0 0 
172 5 2 24.2469 7.28946 4.38093 0 0 0 
175 5 2 22.434 7.04437 -0.0877166 0 0 0 
178 5 2 21.0223 7.26509 2.3966 0 0 0 
36 1 5 0.979602 -0.00097963 10.8229 0 0 0 
37 1 5 3.57024 4.49171 10.8227 0 0 0 
73 2 5 6.15871 0.0040137 10.8182 0 0 0 
74 2 5 8.7505 4.49104 10.8233 0 0 0 
110 3 5 11.3391 -0.00211074 10.8261 0 0 0 
111 3 5 13.93 4.48772 10.8213 0 0 0 
147 4 5 16.5206 -3.78013e-05 10.8226 0 0 0 
148 4 5 19.1105 4.49045 10.8228 0 0 0 
184 5 5 21.7007 -0.000934939 10.8237 0 0 0 
185 5 5 24.2909 4.4913 10.8236 0 0 0 
ITEM: TIMESTEP
500
ITEM: NUMBER OF ATOMS
185
ITEM: BOX BOUNDS pp pp pp
-100 100
-100 100
-100 100
ITEM: ATOMS id mol type x y z ix iy iz 
14 1 2 4.36277 6.56167 -0.11207 0 0 0 
15 1 2 4.34433 2.48161 -0.156929 0 0 0 
26 1 2 1.54052 1.95958 -0.055687 0 0 0 
51 2 2 9.5033 6.54439 -0.0728402 0 0 0 
52 2 2 9.48459 2.48756 -0.101733 0 0 0 
63 2 2 6.93149 1.99548 -0.0957822 0 0 0 
100 3 2 12.1186 1.99813 -0.0971208 0 0 0 
88 3 2 14.6835 6.54876 -0.0701056 0 0 0 
89 3 2 14.661 2.48854 -0.101613 0 0 0 
125 4 2 19.8597 6.54684 -0.0748275 0 0 0 
126 4 2 19.8402 2.49311 -0.108383 0 0 0 
137 4 2 17.2982 1.99924 -0.10136 0 0 0 
162 5 2 25.1882 6.61282 -0.058073 0 0 0 
163 5 2 25.2008 2.37345 -0.0650665 0 0 0 
174 5 2 22.4737 1.98782 -0.135589 0 0 0 
27 1 2 1.48038 7.10445 -0.0506153 0 0 0 
64 2 2 6.90748 7.0326 -0.0586323 0 0 0 
101 3 2 12.089 7.03499 -0.0583154 0 0 0 
138 4 2 17.2648 7.03642 -0.059796 0 0 0 
175 5 2 22.4331 7.0411 -0.0885327 0 0 0 
19 1 2 3.86111 -0.246784 6.56373 0 0 0 
62 2 2 5.20647 -0.244693 0.0814096 0 0 0 
56 2 2 9.03834 -0.247955 6.56961 0 0 0 
99 3 2 10.3854 -0.247968 0.0821553 0 0 0 
93 3 2 14.2231 -0.250013 6.56262 0 0 0 
130 4 2 19.4034 -0.249257 6.56292 0 0 0 
136 4 2 15.5657 -0.2467 0.0775364 0 0 0 
167 5 2 24.5952 -0.301458 6.57758 0 0 0 
173 5 2 20.7483 -0.248585 0.0821231 0 0 0 
1 1 3 4.5542 2.97191 3.34403 0 0 0 
2 1 3 4.54869 5.99258 3.36586 0 0 0 
4 1 3 1.77355 1.53173 3.41521 0 0 0 
5 1 1 2.85328 2.90432 0.626355 0 0 0 
6 1 1 2.87441 6.04908 0.572863 0 0 0 
8 1 1 3.54952 1.45016 6.03639 0 0 0 
10 1 1 0.220819 1.45282 0.625179 0 0 0 
11 1 1 0.857134 2.91753 6.03092 0 0 0 
12 1 1 0.924857 5.99106 5.98238 0 0 0 
13 1 2 2.53463 4.48613 0.000654248 0 0 0 
16 1 2 2.51589 0.0421961 2.34575 0 0 0 
17 1 2 2.98667 6.32084 2.36551 0 0 0 
18 1 2 2.9607 2.70159 2.40297 0 0 0 
22 1 2 4.05437 4.54134 4.21791 0 0 0 
23 1 2 3.55001 1.7997 4.24395 0 0 0 
25 1 2 0.0387045 0.00293867 0.15753 0 0 0 
28 1 2 5.02708 4.49225 2.43077 0 0 0 
29 1 2 0.466707 1.71691 2.19416 0 0 0 
21 1 2 1.21007 4.5959 6.49855 0 0 0 
33 1 2 1.45309 0.109578 4.24951 0 0 0 
34 1 2 1.01648 6.42276 4.44606 0 0 0 
35 1 2 1.02267 2.65304 4.33314 0 0 0 
47 2 1 5.46121 1.41952 0.629511 0 0 0 
48 2 1 6.18978 2.98124 5.9753 0 0 0 
49 2 1 6.22457 6.09517 6.08445 0 0 0 
66 2 2 5.5379 1.82046 2.36469 0 0 0 
58 2 2 6.48298 4.52133 6.57354 0 0 0 
70 2 2 6.61698 0.163374 4.21886 0 0 0 
71 2 2 6.07237 6.30935 4.35649 0 0 0 
72 2 2 6.10566 2.67052 4.28413 0 0 0 
38 2 3 9.71869 2.97268 3.32063 0 0 0 
39 2 3 9.7054 5.99605 3.35947 0 0 0 
41 2 3 7.13454 1.38232 3.31935 0 0 0 
42 2 1 8.06125 2.9308 0.676757 0 0 0 
43 2 1 8.0571 6.04944 0.606688 0 0 0 
45 2 1 8.77681 1.42158 6.02338 0 0 0 
50 2 2 7.76325 4.47557 0.0641587 0 0 0 
53 2 2 7.63481 0.161447 2.42305 0 0 0 
54 2 2 8.20961 6.30846 2.29834 0 0 0 
55 2 2 8.16224 2.6793 2.36355 0 0 0 
59 2 2 9.22665 4.53222 4.21145 0 0 0 
60 2 2 8.73579 1.83352 4.27447 0 0 0 
65 2 2 10.2079 4.49713 2.41362 0 0 0 
78 3 3 12.3012 1.39297 3.32314 0 0 0 
79 3 1 13.2408 2.93053 0.677994 0 0 0 
80 3 1 13.2346 6.04618 0.604835 0 0 0 
84 3 1 10.6445 1.41864 0.621334 0 0 0 
85 3 1 11.3511 2.97411 5.95957 0 0 0 
86 3 1 11.4075 6.09672 6.07504 0 0 0 
87 3 2 12.9435 4.47412 0.0562069 0 0 0 
90 3 2 12.8128 0.166934 2.42649 0 0 0 
103 3 2 10.6969 1.8274 2.36974 0 0 0 
95 3 2 11.6629 4.5161 6.56553 0 0 0 
107 3 2 11.7983 0.162239 4.21787 0 0 0 
108 3 2 11.2329 6.29987 4.3493 0 0 0 
109 3 2 11.2671 2.67831 4.29908 0 0 0 
91 3 2 13.3879 6.30435 2.3033 0 0 0 
92 3 2 13.3396 2.68087 2.367 0 0 0 
75 3 3 14.9031 2.97351 3.3201 0 0 0 
76 3 3 14.8858 5.99139 3.35925 0 0 0 
82 3 1 13.958 1.41914 6.02566 0 0 0 
96 3 2 14.4046 4.53268 4.21367 0 0 0 
97 3 2 13.9101 1.83099 4.27526 0 0 0 
102 3 2 15.3893 4.49825 2.4209 0 0 0 
115 4 3 17.4812 1.38899 3.32364 0 0 0 
116 4 1 18.4242 2.92959 0.675378 0 0 0 
117 4 1 18.4135 6.04892 0.604785 0 0 0 
119 4 1 19.1441 1.4211 6.02374 0 0 0 
121 4 1 15.8277 1.41957 0.619956 0 0 0 
122 4 1 16.5412 2.97366 5.95992 0 0 0 
123 4 1 16.5877 6.09479 6.07515 0 0 0 
124 4 2 18.1226 4.47338 0.0608306 0 0 0 
127 4 2 17.9921 0.161873 2.42458 0 0 0 
128 4 2 18.5689 6.31176 2.30288 0 0 0 
129 4 2 18.5128 2.67544 2.36579 0 0 0 
133 4 2 19.5811 4.55108 4.21286 0 0 0 
134 4 2 19.0894 1.82315 4.27667 0 0 0 
140 4 2 15.8784 1.82824 2.36799 0 0 0 
132 4 2 16.8438 4.51867 6.56502 0 0 0 
144 4 2 16.975 0.162337 4.21902 0 0 0 
145 4 2 16.4173 6.30031 4.34595 0 0 0 
146 4 2 16.4499 2.68083 4.29255 0 0 0 
112 4 3 20.0639 2.98572 3.32656 0 0 0 
113 4 3 20.0547 5.98636 3.37078 0 0 0 
139 4 2 20.5686 4.50221 2.41657 0 0 0 
149 5 3 25.0955 3.01721 3.36534 0 0 0 
150 5 3 25.0877 5.78491 3.36579 0 0 0 
152 5 3 22.5981 1.32238 3.31672 0 0 0 
153 5 1 23.7024 2.90144 0.642288 0 0 0 
154 5 1 23.6808 6.07681 0.609769 0 0 0 
156 5 1 24.3787 1.47423 6.08726 0 0 0 
158 5 1 21.0049 1.42414 0.616948 0 0 0 
159 5 1 21.7234 2.97739 5.96879 0 0 0 
160 5 1 21.7429 6.08479 6.08565 0 0 0 
161 5 2 23.3302 4.48234 0.0515256 0 0 0 
164 5 2 23.2058 0.141125 2.3935 0 0 0 
165 5 2 23.7343 6.38882 2.28274 0 0 0 
166 5 2 23.6492 2.63202 2.3071 0 0 0 
170 5 2 24.8582 4.5737 4.28082 0 0 0 
171 5 2 24.3361 1.75087 4.19452 0 0 0 
176 5 2 25.8754 4.63778 2.46088 0 0 0 
177 5 2 21.032 1.83337 2.35922 0 0 0 
169 5 2 22.0319 4.5116 6.58338 0 0 0 
179 5 2 25.4791 6.56728 6.62533 0 0 0 
181 5 2 22.1362 0.124836 4.26215 0 0 0 
182 5 2 21.58 6.29184 4.33838 0 0 0 
183 5 2 21.6159 2.68924 4.27408 0 0 0 
3 1 3 1.84674 7.06995 3.40111 0 0 0 
7 1 1 3.55383 7.50522 6.05564 0 0 0 
9 1 1 0.295297 7.4094 0.683516 0 0 0 
24 1 2 3.59695 7.2562 4.31136 0 0 0 
30 1 2 0.380682 7.40568 2.14157 0 0 0 
46 2 1 5.44438 7.64734 0.588644 0 0 0 
67 2 2 5.52266 7.25839 2.39474 0 0 0 
40 2 3 7.10958 7.17721 3.26877 0 0 0 
44 2 1 8.75237 7.51993 6.04812 0 0 0 
61 2 2 8.73174 7.24472 4.31578 0 0 0 
77 3 3 12.2984 7.17425 3.27566 0 0 0 
83 3 1 10.6306 7.64208 0.589731 0 0 0 
104 3 2 10.6863 7.25344 2.38619 0 0 0 
81 3 1 13.9391 7.51884 6.04795 0 0 0 
98 3 2 13.9077 7.24417 4.31334 0 0 0 
114 4 3 17.4784 7.17298 3.27694 0 0 0 
118 4 1 19.109 7.52291 6.05099 0 0 0 
120 4 1 15.8082 7.64276 0.587105 0 0 0 
135 4 2 19.0846 7.24897 4.31304 0 0 0 
141 4 2 15.8661 7.25163 2.38963 0 0 0 
151 5 3 22.6487 7.23159 3.26986 0 0 0 
155 5 1 24.4801 7.47181 6.03822 0 0 0 
157 5 1 20.9929 7.64668 0.583609 0 0 0 
172 5 2 24.2444 7.28844 4.37984 0 0 0 
178 5 2 21.0219 7.26234 2.39424 0 0 0 
36 1 5 0.979385 -0.00106246 10.8208 0 0 0 
110 3 5 11.3393 -0.000341899 10.8259 0 0 0 
147 4 5 16.5205 -6.09705e-05 10.8218 0 0 0 
184 5 5 21.7018 0.00112549 10.8254 0 0 0 
20 1 2 2.04539 2.05846 6.71372 0 0 0 
31 1 2 4.72888 6.61068 6.69285 0 0 0 
32 1 2 4.76535 2.49035 6.74581 0 0 0 
37 1 5 3.5689 4.49081 10.8213 0 0 0 
73 2 5 6.15934 0.0029134 10.8183 0 0 0 
57 2 2 7.31097 1.99702 6.74078 0 0 0 
68 2 2 9.90837 6.60644 6.69408 0 0 0 
69 2 2 9.96149 2.50038 6.73069 0 0 0 
94 3 2 12.4935 2.00678 6.73796 0 0 0 
74 2 5 8.75065 4.48814 10.8247 0 0 0 
105 3 2 15.0879 6.60556 6.69529 0 0 0 
106 3 2 15.1396 2.49784 6.73437 0 0 0 
131 4 2 17.6724 2.00739 6.7378 0 0 0 
111 3 5 13.9309 4.48851 10.8237 0 0 0 
148 4 5 19.1083 4.48912 10.8227 0 0 0 
142 4 2 20.2542 6.61143 6.70247 0 0 0 
143 4 2 20.3003 2.49609 6.75094 0 0 0 
168 5 2 22.8443 2.00726 6.77105 0 0 0 
180 5 2 25.7246 2.60746 6.74059 0 0 0 
185 5 5 24.291 4.49368 10.8239 0 0 0 
ITEM: TIMESTEP
1000
ITEM: NUMBER OF ATOMS
185
ITEM: BOX BOUNDS pp pp pp
-100 100
-100 100
-100 100
ITEM: ATOMS id mol type x y z ix iy iz 
14 1 2 4.36116 6.56083 -0.109896 0 0 0 
15 1 2 4.34411 2.48405 -0.156919 0 0 0 
26 1 2 1.53972 1.96148 -0.055083 0 0 0 
51 2 2 9.50636 6.54152 -0.0743908 0 0 0 
52 2 2 9.48638 2.48685 -0.103007 0 0 0 
63 2 2 6.92881 1.99358 -0.0954581 0 0 0 
100 3 2 12.1211 1.99775 -0.0950132 0 0 0 
88 3 2 14.6871 6.55097 -0.0690196 0 0 0 
89 3 2 14.6599 2.48849 -0.102911 0 0 0 
125 4 2 19.8608 6.54708 -0.0756028 0 0 0 
126 4 2 19.84 2.49552 -0.108749 0 0 0 
137 4 2 17.301 2.00113 -0.10252 0 0 0 
162 5 2 25.1879 6.61265 -0.055779 0 0 0 
163 5 2 25.2011 2.37449 -0.0638806 0 0 0 
174 5 2 22.4721 1.99157 -0.131696 0 0 0 
27 1 2 1.48189 7.10398 -0.0496609 0 0 0 
64 2 2 6.90593 7.03065 -0.0613975 0 0 0 
101 3 2 12.0905 7.03447 -0.0590163 0 0 0 
138 4 2 17.2617 7.03705 -0.0625623 0 0 0 
175 5 2 22.4325 7.03747 -0.0892559 0 0 0 
19 1 2 3.85872 -0.246111 6.56456 0 0 0 
62 2 2 5.2051 -0.243989 0.0837716 0 0 0 
56 2 2 9.03845 -0.247025 6.57496 0 0 0 
99 3 2 10.3827 -0.250093 0.0863868 0 0 0 
93 3 2 14.2236 -0.248574 6.56155 0 0 0 
130 4 2 19.4064 -0.249631 6.56238 0 0 0 
136 4 2 15.5632 -0.247892 0.0768307 0 0 0 
167 5 2 24.5969 -0.300197 6.57777 0 0 0 
173 5 2 20.7501 -0.247301 0.0864691 0 0 0 
1 1 3 4.55329 2.97262 3.34471 0 0 0 
2 1 3 4.54666 5.99176 3.36435 0 0 0 
4 1 3 1.77395 1.53272 3.41526 0 0 0 
5 1 1 2.85507 2.9043 0.626332 0 0 0 
6 1 1 2.87421 6.05067 0.573915 0 0 0 
8 1 1 3.5467 1.45186 6.03741 0 0 0 
10 1 1 0.221358 1.45268 0.624794 0 0 0 
11 1 1 0.857069 2.91901 6.03214 0 0 0 
12 1 1 0.925861 5.99238 5.98111 0 0 0 
13 1 2 2.53235 4.48505 -0.00210879 0 0 0 
16 1 2 2.51581 0.0419061 2.34786 0 0 0 
17 1 2 2.98412 6.32049 2.36588 0 0 0 
18 1 2 2.96021 2.70202 2.40224 0 0 0 
22 1 2 4.05567 4.54215 4.21574 0 0 0 
23 1 2 3.55004 1.79835 4.24437 0 0 0 
25 1 2 0.0387718 0.00279711 0.158503 0 0 0 
28 1 2 5.02586 4.4877 2.42931 0 0 0 
29 1 2 0.467777 1.71781 2.19019 0 0 0 
21 1 2 1.2121 4.59412 6.49356 0 0 0 
33 1 2 1.45719 0.109266 4.24794 0 0 0 
34 1 2 1.0213 6.42241 4.44445 0 0 0 
35 1 2 1.02099 2.65182 4.33336 0 0 0 
47 2 1 5.46039 1.41939 0.632258 0 0 0 
48 2 1 6.1906 2.98199 5.97386 0 0 0 
49 2 1 6.2219 6.0953 6.08383 0 0 0 
66 2 2 5.53874 1.82199 2.36661 0 0 0 
58 2 2 6.48105 4.52157 6.57539 0 0 0 
70 2 2 6.61688 0.164125 4.21864 0 0 0 
71 2 2 6.0706 6.31302 4.35782 0 0 0 
72 2 2 6.10281 2.66828 4.2855 0 0 0 
38 2 3 9.71739 2.97329 3.3231 0 0 0 
39 2 3 9.70535 5.99859 3.358 0 0 0 
41 2 3 7.13477 1.38603 3.31854 0 0 0 
42 2 1 8.06009 2.93098 0.677858 0 0 0 
43 2 1 8.05961 6.04932 0.607846 0 0 0 
45 2 1 8.77699 1.42185 6.02416 0 0 0 
50 2 2 7.76345 4.47577 0.0689951 0 0 0 
53 2 2 7.63413 0.161688 2.42171 0 0 0 
54 2 2 8.21099 6.30974 2.29441 0 0 0 
55 2 2 8.16351 2.67741 2.36237 0 0 0 
59 2 2 9.22573 4.53032 4.21157 0 0 0 
60 2 2 8.73812 1.83547 4.27827 0 0 0 
65 2 2 10.2093 4.49632 2.40656 0 0 0 
78 3 3 12.2989 1.3934 3.32219 0 0 0 
79 3 1 13.238 2.92938 0.679266 0 0 0 
80 3 1 13.2347 6.04319 0.604137 0 0 0 
84 3 1 10.6417 1.41857 0.62084 0 0 0 
85 3 1 11.3492 2.97322 5.95971 0 0 0 
86 3 1 11.4073 6.09674 6.0739 0 0 0 
87 3 2 12.9429 4.473 0.0545169 0 0 0 
90 3 2 12.8132 0.169934 2.4275 0 0 0 
103 3 2 10.6958 1.82516 2.36749 0 0 0 
95 3 2 11.6608 4.51542 6.56254 0 0 0 
107 3 2 11.8009 0.161904 4.21989 0 0 0 
108 3 2 11.2316 6.3006 4.35049 0 0 0 
109 3 2 11.2659 2.67696 4.30031 0 0 0 
91 3 2 13.3866 6.30156 2.30362 0 0 0 
92 3 2 13.3389 2.68277 2.36816 0 0 0 
75 3 3 14.9063 2.97492 3.3222 0 0 0 
76 3 3 14.8847 5.98982 3.35829 0 0 0 
82 3 1 13.9555 1.41922 6.02654 0 0 0 
96 3 2 14.402 4.53112 4.21559 0 0 0 
97 3 2 13.9072 1.83043 4.27886 0 0 0 
102 3 2 15.3918 4.49721 2.42155 0 0 0 
115 4 3 17.4825 1.39024 3.32262 0 0 0 
116 4 1 18.4238 2.92556 0.679177 0 0 0 
117 4 1 18.4105 6.04926 0.605267 0 0 0 
119 4 1 19.147 1.42161 6.02454 0 0 0 
121 4 1 15.8271 1.41961 0.618279 0 0 0 
122 4 1 16.5452 2.9721 5.959 0 0 0 
123 4 1 16.588 6.09319 6.07443 0 0 0 
124 4 2 18.1221 4.47134 0.0648446 0 0 0 
127 4 2 17.9924 0.159889 2.4243 0 0 0 
128 4 2 18.5741 6.31418 2.30252 0 0 0 
129 4 2 18.513 2.67368 2.36227 0 0 0 
133 4 2 19.5774 4.55311 4.21179 0 0 0 
134 4 2 19.092 1.82189 4.27904 0 0 0 
140 4 2 15.8787 1.82749 2.36441 0 0 0 
132 4 2 16.8455 4.51932 6.55944 0 0 0 
144 4 2 16.9755 0.162252 4.2214 0 0 0 
145 4 2 16.4201 6.30163 4.34285 0 0 0 
146 4 2 16.4522 2.68236 4.29088 0 0 0 
112 4 3 20.0663 2.98483 3.32564 0 0 0 
113 4 3 20.053 5.98832 3.37245 0 0 0 
139 4 2 20.5705 4.50087 2.41719 0 0 0 
149 5 3 25.0987 3.01575 3.36458 0 0 0 
150 5 3 25.0867 5.7836 3.36755 0 0 0 
152 5 3 22.5983 1.32535 3.31709 0 0 0 
153 5 1 23.6988 2.89951 0.641099 0 0 0 
154 5 1 23.68 6.07914 0.606072 0 0 0 
156 5 1 24.379 1.47351 6.0886 0 0 0 
158 5 1 21.0043 1.42574 0.616038 0 0 0 
159 5 1 21.7238 2.97986 5.96823 0 0 0 
160 5 1 21.7436 6.08432 6.08533 0 0 0 
161 5 2 23.336 4.48511 0.0526099 0 0 0 
164 5 2 23.2073 0.142757 2.39198 0 0 0 
165 5 2 23.7355 6.38972 2.28404 0 0 0 
166 5 2 23.6507 2.6307 2.30829 0 0 0 
170 5 2 24.8615 4.5728 4.28114 0 0 0 
171 5 2 24.3385 1.75224 4.19535 0 0 0 
176 5 2 25.8756 4.63869 2.4616 0 0 0 
177 5 2 21.03 1.83339 2.36085 0 0 0 
169 5 2 22.0301 4.50852 6.58548 0 0 0 
179 5 2 25.4795 6.56728 6.62712 0 0 0 
181 5 2 22.1394 0.124619 4.26137 0 0 0 
182 5 2 21.5787 6.29148 4.34076 0 0 0 
183 5 2 21.6193 2.68971 4.2721 0 0 0 
3 1 3 1.84635 7.06763 3.40195 0 0 0 
7 1 1 3.55293 7.50517 6.05629 0 0 0 
9 1 1 0.298946 7.41157 0.682141 0 0 0 
24 1 2 3.59632 7.25408 4.3114 0 0 0 
30 1 2 0.38049 7.40561 2.14109 0 0 0 
46 2 1 5.44282 7.64794 0.587838 0 0 0 
67 2 2 5.52422 7.25691 2.39487 0 0 0 
40 2 3 7.1091 7.17772 3.26848 0 0 0 
44 2 1 8.75088 7.52137 6.04784 0 0 0 
61 2 2 8.73127 7.24567 4.31488 0 0 0 
77 3 3 12.3007 7.17383 3.27643 0 0 0 
83 3 1 10.6312 7.64202 0.589492 0 0 0 
104 3 2 10.685 7.25037 2.38443 0 0 0 
81 3 1 13.9406 7.51708 6.04756 0 0 0 
98 3 2 13.9061 7.24372 4.31168 0 0 0 
114 4 3 17.4782 7.17202 3.27724 0 0 0 
118 4 1 19.1076 7.52202 6.05437 0 0 0 
120 4 1 15.806 7.64447 0.583876 0 0 0 
135 4 2 19.0833 7.24793 4.31065 0 0 0 
141 4 2 15.8652 7.24722 2.39093 0 0 0 
151 5 3 22.6489 7.23177 3.26921 0 0 0 
155 5 1 24.4788 7.47264 6.0408 0 0 0 
157 5 1 20.9945 7.6493 0.58367 0 0 0 
172 5 2 24.2419 7.28743 4.37866 0 0 0 
178 5 2 21.0213 7.25961 2.39166 0 0 0 
36 1 5 0.979259 -0.0011568 10.8186 0 0 0 
110 3 5 11.3396 0.0013221 10.8256 0 0 0 
147 4 5 16.5202 -0.000283179 10.8209 0 0 0 
184 5 5 21.7028 0.00314876 10.8273 0 0 0 
20 1 2 2.04617 2.05717 6.71082 0 0 0 
31 1 2 4.7291 6.61268 6.69033 0 0 0 
32 1 2 4.76477 2.49033 6.74371 0 0 0 
37 1 5 3.56745 4.48974 10.8196 0 0 0 
73 2 5 6.15998 0.00176987 10.8186 0 0 0 
57 2 2 7.31112 1.9933 6.74052 0 0 0 
68 2 2 9.90688 6.60375 6.69512 0 0 0 
69 2 2 9.96394 2.50269 6.72928 0 0 0 
94 3 2 12.4956 2.00591 6.73836 0 0 0 
74 2 5 8.75068 4.48518 10.8262 0 0 0 
105 3 2 15.0863 6.60322 6.69534 0 0 0 
106 3 2 15.1408 2.49959 6.7352 0 0 0 
131 4 2 17.6745 2.01002 6.73859 0 0 0 
111 3 5 13.9317 4.48926 10.8261 0 0 0 
148 4 5 19.1061 4.48782 10.8225 0 0 0 
142 4 2 20.2528 6.6102 6.70064 0 0 0 
143 4 2 20.2989 2.49869 6.75134 0 0 0 
168 5 2 22.8447 2.00687 6.76865 0 0 0 
180 5 2 25.7217 2.60704 6.74264 0 0 0 
185 5 5 24.291 4.49618 10.8243 0 0 0 
ITEM: TIMESTEP
1500
ITEM: NUMBER OF ATOMS
185
ITEM: BOX BOUNDS pp pp pp
-100 100
-100 100
-100 100
ITEM: ATOMS id mol type x y z ix iy iz 
14 1 2 4.35984 6.56018 -0.107834 0 0 0 
15 1 2 4.34382 2.48644 -0.15675 0 0 0 
26 1 2 1.53915 1.96344 -0.0544021 0 0 0 
51 2 2 9.50973 6.53888 -0.0760702 0 0 0 
52 2 2 9.48807 2.48645 -0.104065 0 0 0 
63 2 2 6.9261 1.99141 -0.0954152 0 0 0 
100 3 2 12.1232 1.99689 -0.0929695 0 0 0 
88 3 2 14.6907 6.55313 -0.0681757 0 0 0 
89 3 2 14.6589 2.4886 -0.104356 0 0 0 
125 4 2 19.8621 6.54709 -0.076499 0 0 0 
126 4 2 19.8396 2.49768 -0.109334 0 0 0 
137 4 2 17.3034 2.00277 -0.103791 0 0 0 
162 5 2 25.1872 6.61226 -0.0534907 0 0 0 
163 5 2 25.2006 2.3754 -0.0623019 0 0 0 
174 5 2 22.4704 1.99526 -0.127967 0 0 0 
27 1 2 1.4838 7.10323 -0.0482198 0 0 0 
64 2 2 6.90401 7.02857 -0.0641712 0 0 0 
101 3 2 12.0915 7.03422 -0.0600784 0 0 0 
138 4 2 17.2584 7.03804 -0.0654638 0 0 0 
175 5 2 22.432 7.03357 -0.0898035 0 0 0 
19 1 2 3.85646 -0.245744 6.56532 0 0 0 
62 2 2 5.20379 -0.24309 0.0860183 0 0 0 
56 2 2 9.03877 -0.246105 6.58032 0 0 0 
99 3 2 10.3801 -0.252231 0.0908779 0 0 0 
93 3 2 14.2244 -0.247403 6.56053 0 0 0 
130 4 2 19.4095 -0.249924 6.56185 0 0 0 
136 4 2 15.5604 -0.249155 0.0761134 0 0 0 
167 5 2 24.5984 -0.298924 6.57801 0 0 0 
173 5 2 20.7519 -0.24574 0.0907572 0 0 0 
1 1 3 4.55238 2.97324 3.34533 0 0 0 
2 1 3 4.54449 5.99111 3.36283 0 0 0 
4 1 3 1.77415 1.5338 3.41529 0 0 0 
5 1 1 2.85678 2.90412 0.626457 0 0 0 
6 1 1 2.87363 6.05264 0.575509 0 0 0 
8 1 1 3.54407 1.45339 6.03833 0 0 0 
10 1 1 0.221761 1.45276 0.624344 0 0 0 